 Entering Gaussian System, Link 0=g16
 Initial command:
 /opt/packages/gaussian/g16RevC.01/g16/l1.exe "/ocean/projects/che200051p/zlab/tmp/Gau-38499.inp" -scrdir="/ocean/projects/che200051p/zlab/tmp/"
 Entering Link 1 = /opt/packages/gaussian/g16RevC.01/g16/l1.exe PID=     38500.
  
 Copyright (c) 1988-2019, Gaussian, Inc.  All Rights Reserved.
  
 This is part of the Gaussian(R) 16 program.  It is based on
 the Gaussian(R) 09 system (copyright 2009, Gaussian, Inc.),
 the Gaussian(R) 03 system (copyright 2003, Gaussian, Inc.),
 the Gaussian(R) 98 system (copyright 1998, Gaussian, Inc.),
 the Gaussian(R) 94 system (copyright 1995, Gaussian, Inc.),
 the Gaussian 92(TM) system (copyright 1992, Gaussian, Inc.),
 the Gaussian 90(TM) system (copyright 1990, Gaussian, Inc.),
 the Gaussian 88(TM) system (copyright 1988, Gaussian, Inc.),
 the Gaussian 86(TM) system (copyright 1986, Carnegie Mellon
 University), and the Gaussian 82(TM) system (copyright 1983,
 Carnegie Mellon University). Gaussian is a federally registered
 trademark of Gaussian, Inc.
  
 This software contains proprietary and confidential information,
 including trade secrets, belonging to Gaussian, Inc.
  
 This software is provided under written license and may be
 used, copied, transmitted, or stored only in accord with that
 written license.
  
 The following legend is applicable only to US Government
 contracts under FAR:
  
                    RESTRICTED RIGHTS LEGEND
  
 Use, reproduction and disclosure by the US Government is
 subject to restrictions as set forth in subparagraphs (a)
 and (c) of the Commercial Computer Software - Restricted
 Rights clause in FAR 52.227-19.
  
 Gaussian, Inc.
 340 Quinnipiac St., Bldg. 40, Wallingford CT 06492
  
  
 ---------------------------------------------------------------
 Warning -- This program may not be used in any manner that
 competes with the business of Gaussian, Inc. or will provide
 assistance to any competitor of Gaussian, Inc.  The licensee
 of this program is prohibited from giving any competitor of
 Gaussian, Inc. access to this program.  By using this program,
 the user acknowledges that Gaussian, Inc. is engaged in the
 business of creating and licensing software in the field of
 computational chemistry and represents and warrants to the
 licensee that it is not a competitor of Gaussian, Inc. and that
 it will not use this program in any manner prohibited above.
 ---------------------------------------------------------------
  

 Cite this work as:
 Gaussian 16, Revision C.01,
 M. J. Frisch, G. W. Trucks, H. B. Schlegel, G. E. Scuseria, 
 M. A. Robb, J. R. Cheeseman, G. Scalmani, V. Barone, 
 G. A. Petersson, H. Nakatsuji, X. Li, M. Caricato, A. V. Marenich, 
 J. Bloino, B. G. Janesko, R. Gomperts, B. Mennucci, H. P. Hratchian, 
 J. V. Ortiz, A. F. Izmaylov, J. L. Sonnenberg, D. Williams-Young, 
 F. Ding, F. Lipparini, F. Egidi, J. Goings, B. Peng, A. Petrone, 
 T. Henderson, D. Ranasinghe, V. G. Zakrzewski, J. Gao, N. Rega, 
 G. Zheng, W. Liang, M. Hada, M. Ehara, K. Toyota, R. Fukuda, 
 J. Hasegawa, M. Ishida, T. Nakajima, Y. Honda, O. Kitao, H. Nakai, 
 T. Vreven, K. Throssell, J. A. Montgomery, Jr., J. E. Peralta, 
 F. Ogliaro, M. J. Bearpark, J. J. Heyd, E. N. Brothers, K. N. Kudin, 
 V. N. Staroverov, T. A. Keith, R. Kobayashi, J. Normand, 
 K. Raghavachari, A. P. Rendell, J. C. Burant, S. S. Iyengar, 
 J. Tomasi, M. Cossi, J. M. Millam, M. Klene, C. Adamo, R. Cammi, 
 J. W. Ochterski, R. L. Martin, K. Morokuma, O. Farkas, 
 J. B. Foresman, and D. J. Fox, Gaussian, Inc., Wallingford CT, 2019.
 
 ******************************************
 Gaussian 16:  ES64L-G16RevC.01  3-Jul-2019
                18-Feb-2025 
 ******************************************
 %NProcShared=16
 Will use up to   16 processors via shared memory.
 %Chk=20250218_keto_amine_exc.chk
 -------------------------------------
 #n CIS=(NStates=6, 50-50)/6-31+G(d,p)
 -------------------------------------
 1/38=1,172=1/1;
 2/12=2,17=6,18=5,40=1/2;
 3/5=1,6=6,7=111,11=9,25=1,30=1/1,2,3,8;
 4//1;
 5/5=2,38=5/2;
 8/6=1,10=2,108=6/1;
 9/41=6,42=1,48=2/14;
 6/7=2,8=2,9=2,10=2/1;
 99/5=1,9=1/99;
 ----------------------------
 Excited states of keto amine
 ----------------------------
 Symbolic Z-matrix:
 Charge =  0 Multiplicity = 1
 C
 C                    1     1.53656 
 C                    2     1.53892  1     109.13265 
 C                    1     1.50304  2     120.69586  3     220.14558  0
 C                    4     1.40461  1     123.58215  2     358.65815  0
 C                    4     1.40663  1     117.68221  2     179.21267  0
 C                    5     1.39686  4     120.5785  1     180.629  0
 C                    7     1.3965   5     120.10065  4     359.66109  0
 C                    6     1.39228  4     120.71118  1     179.7473  0
 H                    9     1.08616  6     119.89216  4     179.75766  0
 H                    6     1.08473  4     118.1891  1     359.72039  0
 H                    8     1.08631  7     120.05068  5     180.2066  0
 H                    7     1.08605  5     119.75196  4     179.72177  0
 H                    5     1.08421  4     120.67355  1     0.28224  0
 N                    3     1.4651   2     112.15887  1     67.97992  0
 H                    3     1.10553  2     110.18022  1     192.32839  0
 C                    15    1.46703  3     112.50772  2     209.65572  0
 C                    15    1.46549  3     112.60548  2     82.96531  0
 C                    17    1.53204  15    111.18889  3     173.3694  0
 H                    17    1.0946   15    108.02027  3     52.53623  0
 H                    17    1.11121  15    111.01082  3     295.19981  0
 C                    19    1.53482  17    111.14862  15    55.98642  0
 H                    19    1.09746  17    108.5988  15    295.22776  0
 H                    19    1.09685  17    109.26948  15    178.4572  0
 C                    18    1.5322   15    111.46931  3     186.7657  0
 H                    22    1.09659  19    110.67032  17    184.86143  0
 H                    22    1.09981  19    109.31619  17    67.62086  0
 H                    18    1.11175  15    110.54354  3     64.94245  0
 H                    18    1.09531  15    108.91229  3     307.99056  0
 H                    25    1.09751  18    108.75603  15    64.65816  0
 H                    25    1.09703  18    109.30684  15    181.56519  0
 C                    2     1.55025  1     107.9223  3     236.89791  0
 H                    2     1.09411  1     109.73632  3     119.1248  0
 C                    32    1.5326   2     113.61357  1     191.92157  0
 H                    32    1.09612  2     108.91996  1     68.88159  0
 H                    32    1.09503  2     109.78037  1     313.4051  0
 C                    34    1.51744  32    112.89422  2     173.29499  0
 H                    34    1.09949  32    110.54349  2     53.92999  0
 H                    34    1.09409  32    112.4622  2     295.946  0
 O                    37    1.2146   34    125.58374  32    344.18567  0
 O                    37    1.35204  34    110.9891  32    165.24504  0
 C                    41    1.45129  37    116.49015  34    178.04969  0
 C                    42    1.51672  41    107.58859  37    179.99541  0
 H                    43    1.09421  42    111.05762  41    299.62344  0
 H                    43    1.09505  42    109.59079  41    180.01476  0
 H                    43    1.09425  42    111.08335  41    60.38647  0
 H                    42    1.09411  41    108.50836  37    58.45448  0
 H                    42    1.09436  41    108.54802  37    301.55137  0
 O                    1     1.22473  2     119.38651  3     43.04615  0
 H                    3     1.09342  2     107.42494  1     308.85789  0
 
                          Input orientation:                          
 ---------------------------------------------------------------------
 Center     Atomic      Atomic             Coordinates (Angstroms)
 Number     Number       Type             X           Y           Z
 ---------------------------------------------------------------------
      1          6           0        0.000000    0.000000    0.000000
      2          6           0        0.000000    0.000000    1.536560
      3          6           0        1.453914    0.000000    2.040951
      4          6           0       -0.987958    0.833282   -0.767273
      5          6           0       -1.972805    1.628092   -0.157941
      6          6           0       -0.920439    0.798726   -2.171857
      7          6           0       -2.868415    2.368459   -0.933155
      8          6           0       -2.786734    2.329516   -2.326720
      9          6           0       -1.808325    1.542020   -2.944913
     10          1           0       -1.741706    1.508548   -4.028511
     11          1           0       -0.159130    0.178852   -2.633164
     12          1           0       -3.481510    2.908237   -2.928748
     13          1           0       -3.627534    2.974986   -0.448007
     14          1           0       -2.056064    1.674406    0.922074
     15          7           0        2.142733    1.257908    1.741430
     16          1           0        1.481968   -0.221556    3.123689
     17          6           0        3.586451    1.076841    1.554160
     18          6           0        1.862297    2.302919    2.729848
     19          6           0        4.250819    2.374557    1.083314
     20          1           0        3.735074    0.287987    0.810004
     21          1           0        4.070861    0.738032    2.495087
     22          6           0        3.966281    3.526975    2.056271
     23          1           0        3.861816    2.625945    0.088378
     24          1           0        5.330597    2.211683    0.980199
     25          6           0        2.457021    3.649868    2.305975
     26          1           0        4.371600    4.469476    1.669080
     27          1           0        4.476777    3.331762    3.010665
     28          1           0        2.268444    2.017992    3.724759
     29          1           0        0.777523    2.398157    2.847745
     30          1           0        1.955869    3.983837    1.388457
     31          1           0        2.251013    4.397577    3.081840
     32          6           0       -0.805558   -1.235626    2.013614
     33          1           0       -0.501236    0.899627    1.906032
     34          6           0       -1.136656   -1.212327    3.509840
     35          1           0       -0.242756   -2.143465    1.767521
     36          1           0       -1.744229   -1.304674    1.453953
     37          6           0       -2.059863   -2.341756    3.927815
     38          1           0       -1.644470   -0.274749    3.778078
     39          1           0       -0.241117   -1.255623    4.136872
     40          8           0       -2.724717   -3.026039    3.176164
     41          8           0       -2.072091   -2.484898    5.272201
     42          6           0       -2.953033   -3.507072    5.806377
     43          6           0       -2.808386   -3.493486    7.316123
     44          1           0       -1.778305   -3.710926    7.614363
     45          1           0       -3.461297   -4.255559    7.754402
     46          1           0       -3.090220   -2.520445    7.729817
     47          1           0       -2.669200   -4.471007    5.373543
     48          1           0       -3.976420   -3.285648    5.488141
     49          8           0        0.779873   -0.728418   -0.600973
     50          1           0        1.977782   -0.812378    1.529902
 ---------------------------------------------------------------------
                    Distance matrix (angstroms):
                    1          2          3          4          5
     1  C    0.000000
     2  C    1.536560   0.000000
     3  C    2.505862   1.538920   0.000000
     4  C    1.503040   2.641603   3.813557   0.000000
     5  C    2.562730   3.068220   4.384998   1.404610   0.000000
     6  C    2.490408   3.903527   4.901353   1.406630   2.418920
     7  C    3.835125   4.465075   5.756512   2.433188   1.396860
     8  C    4.313486   5.302590   6.518150   2.811794   2.420347
     9  C    3.784228   5.072619   6.154581   2.432576   2.793148
    10  H    4.640922   6.023228   7.023252   3.414644   3.879305
    11  H    2.644024   4.176591   4.947853   2.144011   3.393588
    12  H    5.399659   6.365354   7.583809   3.898103   3.404751
    13  H    4.712776   5.093923   6.392696   3.414116   2.153228
    14  H    2.807358   2.721880   4.046661   2.168464   1.084210
    15  N    3.034175   2.493112   1.465100   4.034244   4.547779
    16  H    3.464499   2.182727   1.105530   4.727876   5.111336
    17  C    4.054335   3.744667   2.438087   5.135523   5.842986
    18  C    4.027859   3.193042   2.438194   4.744854   4.847960
    19  C    4.988141   4.890135   3.791869   5.765847   6.389947
    20  H    3.832730   3.815966   2.608037   5.009210   5.942447
    21  H    4.831362   4.246807   2.756691   6.020275   6.660079
    22  C    5.692028   5.333013   4.330332   6.306573   6.616738
    23  H    4.670869   4.889421   4.062773   5.240810   5.924456
    24  H    5.853853   5.797960   4.587527   6.699088   7.414554
    25  C    4.967496   4.466597   3.794470   5.407947   5.457272
    26  H    6.470930   6.253372   5.350458   6.919725   7.187694
    27  H    6.340842   5.771928   4.602031   7.097785   7.385097
    28  H    4.805410   3.742505   2.751538   5.673275   5.763296
    29  H    3.803334   2.841638   2.619080   4.316725   4.146258
    30  H    4.650182   4.440531   4.068005   4.820714   4.834807
    31  H    5.822670   5.176257   4.588846   6.165290   6.000572
    32  C    2.496064   1.550250   2.575409   3.470876   3.778755
    33  H    2.166455   1.094110   2.156419   2.718062   2.637454
    34  C    3.883388   2.579837   3.215342   4.743451   4.713783
    35  H    2.788817   2.169496   2.747343   3.980142   4.574397
    36  H    2.618872   2.179756   3.503549   3.174374   3.354335
    37  C    5.015435   3.930007   4.625008   5.768336   5.697427
    38  H    4.129606   2.793595   3.562735   4.724295   4.384160
    39  H    4.329947   2.897645   2.973652   5.382559   5.455270
    40  O    5.164204   4.389680   5.282667   5.784581   5.774301
    41  O    6.185821   4.941993   5.389657   6.975737   6.812708
    42  C    7.398241   6.265086   6.774893   8.118687   7.931195
    43  C    8.580043   7.314016   7.628833   9.347523   9.098923
    44  H    8.655164   7.339825   7.435128   9.566938   9.431418
    45  H    9.498479   8.291677   8.655206  10.229010   9.971867
    46  H    8.697826   7.366039   7.704868   9.373768   8.981966
    47  H    7.482613   6.468151   6.935138   8.286838   8.263250
    48  H    7.531739   6.497876   7.222681   8.063913   7.748391
    49  O    1.224730   2.389109   2.822178   2.364697   3.650568
    50  H    2.629102   2.138135   1.093420   4.096440   4.940834
                    6          7          8          9         10
     6  C    0.000000
     7  C    2.791604   0.000000
     8  C    2.418751   1.396500   0.000000
     9  C    1.392280   2.419497   1.399856   0.000000
    10  H    2.150696   3.404431   2.159205   1.086160   0.000000
    11  H    1.084730   3.876162   3.409335   2.162234   2.493919
    12  H    3.403235   2.156302   1.086310   2.160176   2.489082
    13  H    3.877645   1.086050   2.157113   3.405503   4.304277
    14  H    3.410113   2.140911   3.393775   3.877176   4.963328
    15  N    4.990760   5.787774   6.480573   6.136236   6.960166
    16  H    5.903841   6.487835   7.378126   7.124897   8.033636
    17  C    5.854281   7.037067   7.566235   7.040004   7.729285
    18  C    5.833774   5.983437   6.868993   6.801128   7.700343
    19  C    6.310412   7.399303   7.820327   7.323453   7.924083
    20  H    5.552130   7.139540   7.519366   6.811848   7.409192
    21  H    6.833529   7.909784   8.532833   8.050144   8.771372
    22  C    7.014302   7.549297   8.139270   7.892906   8.583690
    23  H    5.596191   6.812183   7.079815   6.521215   7.042501
    24  H    7.141943   8.420766   8.765880   8.174298   8.694771
    25  C    6.291839   6.363509   7.120545   7.085763   7.895586
    26  H    7.498859   7.975194   8.472756   8.249267   8.865786
    27  H    7.899667   8.392467   9.069221   8.841640   9.567844
    28  H    6.813638   6.943077   7.891278   7.831419   8.743800
    29  H    5.535130   5.252519   6.283608   6.401131   7.377047
    30  H    5.576192   5.592231   6.247528   6.237766   7.010183
    31  H    7.114153   6.815134   7.675174   7.807316   8.651323
    32  C    4.655099   5.091979   5.955988   5.771295   6.701801
    33  H    4.100621   3.977686   5.018393   5.064861   6.093304
    34  C    6.030984   5.963323   7.023734   7.049923   8.037163
    35  H    4.963309   5.877516   6.575879   6.183918   7.012706
    36  H    4.271934   4.522608   5.346741   5.240019   6.162113
    37  C    6.954632   6.816811   7.840174   7.898188   8.844727
    38  H    6.089195   5.538981   6.734651   6.966068   8.008273
    39  H    6.669474   6.763271   7.817379   7.773971   8.750194
    40  O    6.818032   6.782902   7.679032   7.692497   8.569488
    41  O    8.217206   7.918058   9.024018   9.154594  10.127192
    42  C    9.291047   8.941494  10.012027  10.168027  11.106250
    43  C   10.583439  10.120109  11.264646  11.473679  12.444231
    44  H   10.809393  10.545488  11.676001  11.793754  12.759340
    45  H   11.425076  10.940876  12.060152  12.280862  13.229473
    46  H   10.666208   9.949757  11.169072  11.493335  12.502382
    47  H    9.368100   9.305505  10.273995  10.300209  11.180964
    48  H    9.203081   8.627262   9.696261   9.956074  10.887834
    49  O    2.773248   4.796978   5.004982   4.165058   4.807327
    50  H    4.969744   6.298412   6.888079   6.316784   7.079353
                   11         12         13         14         15
    11  H    0.000000
    12  H    4.309886   0.000000
    13  H    4.962167   2.485931   0.000000
    14  H    4.298228   4.287548   2.457265   0.000000
    15  N    5.059645   7.494415   6.406089   4.298222   0.000000
    16  H    5.999574   8.429930   7.005849   4.578150   2.129804
    17  C    5.689415   8.567762   7.723549   5.709168   1.467030
    18  C    6.112260   7.806560   6.378768   4.360806   1.465490
    19  C    6.170980   8.727564   8.048225   6.347676   2.474682
    20  H    5.199244   8.539500   7.937919   5.955838   2.084191
    21  H    6.671167   9.548093   8.539968   6.394558   2.134466
    22  C    7.086589   8.983476   8.015119   6.402113   2.927988
    23  H    5.437192   7.944002   7.516642   6.051594   2.749428
    24  H    6.879382   9.665313   9.103324   7.406403   3.413449
    25  C    6.579308   7.951006   6.712801   5.117184   2.477693
    26  H    7.579332   9.233029   8.408431   7.048780   3.909892
    27  H    7.955205   9.939332   8.818705   7.055994   3.370399
    28  H    7.049733   8.838759   7.286315   5.164733   2.127704
    29  H    5.986903   7.194958   5.531659   3.501606   2.094731
    30  H    5.926598   7.025686   5.963621   4.652590   2.755030
    31  H    7.501180   8.438431   7.002921   5.534543   3.415545
    32  C    4.900118   6.982783   5.634925   3.350151   3.870945
    33  H    4.608780   6.024255   4.429713   1.996484   2.673206
    34  C    6.373966   7.995799   6.277151   3.984354   4.470316
    35  H    4.976563   7.619984   6.524096   4.310337   4.154585
    36  H    4.627950   6.322565   5.047750   3.042212   4.664541
    37  C    7.280982   8.751912   7.062093   5.016378   5.949762
    38  H    6.596667   7.647721   5.687981   3.482151   4.565072
    39  H    6.920826   8.818212   7.098380   4.713176   4.211736
    40  O    7.113498   8.547415   7.068380   5.255682   6.640988
    41  O    8.558608   9.916044   8.059189   6.018610   6.651292
    42  C    9.623814  10.850709   9.032683   7.176955   8.074383
    43  C   10.931283  12.099279  10.138731   8.255723   8.841184
    44  H   11.079887  12.564689  10.635924   8.594514   8.634535
    45  H   11.767320  12.862739  10.935627   9.155319   9.897439
    46  H   11.102652  11.967819   9.867385   8.062978   8.804574
    47  H    9.593175  11.137375   9.500088   7.612990   8.316695
    48  H    9.619255  10.461987   8.634531   7.009912   8.492690
    49  O    2.415505   6.066563   5.758805   4.016937   3.360020
    50  H    4.783309   7.970345   7.048108   4.777601   2.087592
                   16         17         18         19         20
    16  H    0.000000
    17  C    2.928840   0.000000
    18  C    2.583164   2.420375   0.000000
    19  C    4.309231   1.532040   2.901938   0.000000
    20  H    3.269443   1.094600   3.354556   2.166672   0.000000
    21  H    2.831663   1.111210   2.716935   2.168801   1.776175
    22  C    4.621977   2.529731   2.525622   1.534820   3.478172
    23  H    4.794273   2.150364   3.328631   1.097460   2.450073
    24  H    5.032608   2.158551   3.885705   1.096850   2.505048
    25  C    4.075207   2.908832   1.532200   2.517743   3.895330
    26  H    5.698390   3.484198   3.480776   2.178622   4.316021
    27  H    4.648411   2.828207   2.823629   2.163788   3.828525
    28  H    2.448552   2.708211   1.111750   3.321773   3.693199
    29  H    2.726772   3.362932   1.095310   3.895839   4.165611
    30  H    4.573942   3.337196   2.152573   2.819519   4.142401
    31  H    4.682903   3.891592   2.159304   3.476484   4.924674
    32  C    2.737404   4.984812   4.489069   6.282184   4.938361
    33  H    2.583184   4.106629   2.869527   5.043244   4.418337
    34  C    2.826293   5.601135   4.686049   6.912210   5.768345
    35  H    2.916779   5.007866   5.012748   6.408813   4.759404
    36  H    3.790714   5.839333   5.258295   7.043772   5.742299
    37  C    4.205524   7.014407   6.196085   8.376127   7.086436
    38  H    3.194632   5.842529   4.476670   7.002500   6.169735
    39  H    2.250523   5.173110   4.366610   6.532986   5.409332
    40  O    5.056093   7.700348   7.045401   9.066673   7.636122
    41  O    4.729710   7.650419   6.698221   9.007789   7.830917
    42  C    6.136829   9.047567   8.149137  10.430550   9.170441
    43  C    6.832948   9.745874   8.743427  11.095685   9.972261
    44  H    6.555244   9.403689   8.560304  10.772095   9.627458
    45  H    7.883689  10.795751   9.828551  12.163000  10.984362
    46  H    6.885217   9.780447   8.531820  11.046624  10.117101
    47  H    6.352312   9.192360   8.567944  10.637409   9.191770
    48  H    6.691285   9.576249   8.539958  10.914572   9.701699
    49  O    3.823998   3.972461   4.631956   4.951035   3.428870
    50  H    1.770610   2.481442   3.340401   3.939885   2.194796
                   21         22         23         24         25
    21  H    0.000000
    22  C    2.825189   0.000000
    23  H    3.065968   2.166881   0.000000
    24  H    2.460379   2.179285   1.767561   0.000000
    25  C    3.334521   1.534705   2.817731   3.476133   0.000000
    26  H    3.833589   1.096590   2.481352   2.547913   2.177845
    27  H    2.675448   1.099810   3.068569   2.471109   2.162682
    28  H    2.529643   2.818427   4.016430   4.116662   2.170605
    29  H    3.704923   3.474023   4.144739   4.924732   2.163564
    30  H    4.029028   2.167130   2.677071   3.833535   1.097510
    31  H    4.128970   2.179882   3.833300   4.321906   1.097030
    32  C    5.282670   6.742005   6.356307   7.113669   5.882002
    33  H    4.612718   5.185001   5.031925   6.048879   4.058949
    34  C    5.652597   7.114338   7.171015   7.742628   6.164799
    35  H    5.238289   7.067761   6.512626   7.116843   6.414159
    36  H    6.250750   7.504501   6.981569   7.914693   6.551636
    37  C    7.008821   8.617371   8.630504   9.167395   7.676728
    38  H    5.944477   6.992728   7.235130   7.915935   5.864464
    39  H    5.026258   6.701070   6.949168   7.282224   5.890329
    40  O    7.798203   9.432157   9.212044   9.856169   8.495608
    41  O    7.472316   9.107511   9.391698   9.761093   8.182097
    42  C    8.849895  10.555473  10.805165  11.163095   9.630332
    43  C    9.405965  11.083728  11.583581  11.787109  10.190859
    44  H    8.956168  10.783314  11.340518  11.385337  10.014901
    45  H   10.456087  12.173965  12.639264  12.845717  11.278635
    46  H    9.449929  10.888278  11.541565  11.783910   9.912754
    47  H    8.991553  10.908786  10.997903  11.311789  10.081504
    48  H    9.481936  11.012541  11.204567  11.711650   9.980818
    49  O    4.750439   5.943274   4.607096   5.643881   5.516572
    50  H    2.777829   4.802205   4.177276   4.548460   4.554514
                   26         27         28         29         30
    26  H    0.000000
    27  H    1.762187   0.000000
    28  H    3.828688   2.666956   0.000000
    29  H    4.312424   3.818722   1.771024   0.000000
    30  H    2.479990   3.067855   3.069292   2.456094   0.000000
    31  H    2.549108   2.468816   2.464970   2.494725   1.768004
    32  C    7.711670   7.053950   4.792029   4.050469   5.937936
    33  H    6.045205   5.649434   3.497090   2.183493   3.977134
    34  C    8.124787   7.239375   4.698495   4.139812   6.408127
    35  H    8.064302   7.334678   5.239717   4.778512   6.520848
    36  H    8.413707   7.913331   5.683152   4.691785   6.454716
    37  C    9.636311   8.703886   6.146778   5.628862   7.911230
    38  H    7.946613   7.146014   4.535461   3.725050   6.066983
    39  H    7.755251   6.676149   4.145394   4.006193   6.311297
    40  O   10.431287   9.607837   7.118628   6.464939   8.616387
    41  O   10.142335   9.046312   6.442891   6.151627   8.552921
    42  C   11.592791  10.477964   7.881833   7.585663   9.986443
    43  C   12.118171  10.871734   8.309543   8.218066  10.665164
    44  H   11.835823  10.484252   8.020330   8.159277  10.579004
    45  H   13.210286  11.961751   9.403478   9.290576  11.737060
    46  H   11.885718  10.666685   8.084132   7.936416  10.391416
    47  H   11.967796  10.841189   8.319010   8.089806  10.428641
    48  H   12.017347  11.017465   8.380719   7.866213  10.239378
    49  O    6.713550   6.572374   5.335783   4.655012   5.248442
    50  H    5.800665   5.060784   3.593449   3.672175   4.798350
                   31         32         33         34         35
    31  H    0.000000
    32  C    6.497439   0.000000
    33  H    4.603591   2.159512   0.000000
    34  C    6.567382   1.532600   2.726960   0.000000
    35  H    7.122608   1.096120   3.057189   2.168352   0.000000
    36  H    7.150360   1.095030   2.570671   2.145774   1.748232
    37  C    8.044746   2.541844   4.125953   1.517440   2.829852
    38  H    6.122922   2.177244   2.488112   1.099490   3.082083
    39  H    6.267573   2.197094   3.112782   1.094090   2.530235
    40  O    8.937385   2.870587   4.686998   2.433686   2.987195
    41  O    8.417564   3.712570   5.025305   2.366515   3.968100
    42  C    9.848283   4.914893   6.375186   3.720103   5.051473
    43  C   10.285697   6.101300   7.341081   4.741958   6.260351
    44  H   10.125561   6.200140   7.448029   4.847867   6.245030
    45  H   11.372778   7.009250   8.339144   5.716775   7.117772
    46  H    9.899065   6.288515   7.232994   4.830713   6.618091
    47  H   10.397701   5.022945   6.750364   4.054760   4.930363
    48  H   10.178563   5.131208   6.513443   4.034426   5.393314
    49  O    6.480988   3.099503   3.252207   4.561364   2.942430
    50  H    5.443051   2.856589   3.036110   3.712120   2.599816
                   36         37         38         39         40
    36  H    0.000000
    37  C    2.700955   0.000000
    38  H    2.544062   2.113643   0.000000
    39  H    3.075680   2.128668   1.749356   0.000000
    40  O    2.624969   1.214600   3.016426   3.197749   0.000000
    41  O    4.009917   1.352040   2.701855   2.480435   2.261001
    42  C    5.025471   2.384263   4.034135   3.900097   2.683570
    43  C    6.347312   3.656146   4.922675   4.659028   4.167106
    44  H    6.613762   3.942656   5.151922   4.525970   4.589376
    45  H    7.166010   4.502158   5.912601   5.696990   4.797347
    46  H    6.532707   3.943195   4.769652   4.756723   4.596192
    47  H    5.122931   2.644831   4.604797   4.214693   2.630493
    48  H    5.018128   2.645514   4.174664   4.460876   2.641855
    49  O    3.305433   5.583626   5.025868   4.875197   5.641628
    50  H    3.755195   4.938781   4.296982   3.451996   5.451969
                   41         42         43         44         45
    41  O    0.000000
    42  C    1.451290   0.000000
    43  C    2.395204   1.516720   0.000000
    44  H    2.659920   2.165722   1.094210   0.000000
    45  H    3.350590   2.147874   1.095050   1.774457   0.000000
    46  H    2.660400   2.166074   1.094250   1.775302   1.774521
    47  H    2.076400   1.094110   2.179114   2.528376   2.518397
    48  H    2.077089   1.094360   2.179224   3.087619   2.518336
    49  O    6.761146   7.918942   9.121492   9.106666  10.012019
    50  H    5.762256   7.061342   7.973463   7.715597   8.954523
                   46         47         48         49         50
    46  H    0.000000
    47  H    3.087714   0.000000
    48  H    2.529031   1.768342   0.000000
    49  O    9.359009   7.848434   8.138738   0.000000
    50  H    8.187862   7.053622   7.565530   2.445948   0.000000
 Stoichiometry    C19H27NO3
 Framework group  C1[X(C19H27NO3)]
 Deg. of freedom   144
 Full point group                 C1      NOp   1
 Largest Abelian subgroup         C1      NOp   1
 Largest concise Abelian subgroup C1      NOp   1
                         Standard orientation:                         
 ---------------------------------------------------------------------
 Center     Atomic      Atomic             Coordinates (Angstroms)
 Number     Number       Type             X           Y           Z
 ---------------------------------------------------------------------
      1          6           0        1.063710    0.973167   -0.990617
      2          6           0        0.079730   -0.002409   -0.326501
      3          6           0        0.412834   -1.436903   -0.773204
      4          6           0        1.627112    2.136033   -0.222861
      5          6           0        1.286459    2.426255    1.108550
      6          6           0        2.535570    2.979448   -0.887665
      7          6           0        1.838873    3.532470    1.758433
      8          6           0        2.743939    4.358464    1.088507
      9          6           0        3.091907    4.078087   -0.238107
     10          1           0        3.795080    4.718289   -0.762924
     11          1           0        2.789280    2.749463   -1.916926
     12          1           0        3.175614    5.216603    1.595778
     13          1           0        1.562589    3.746945    2.786622
     14          1           0        0.586052    1.799826    1.649409
     15          7           0        1.697283   -1.897565   -0.239819
     16          1           0       -0.405567   -2.124191   -0.490273
     17          6           0        2.356177   -2.867408   -1.121544
     18          6           0        1.587251   -2.412326    1.127871
     19          6           0        3.764045   -3.204446   -0.620087
     20          1           0        2.409508   -2.431745   -2.124292
     21          1           0        1.761654   -3.802942   -1.199683
     22          6           0        3.728817   -3.716744    0.826282
     23          1           0        4.381876   -2.299195   -0.676862
     24          1           0        4.216120   -3.950581   -1.284912
     25          6           0        2.964210   -2.730626    1.719739
     26          1           0        4.745446   -3.873651    1.206224
     27          1           0        3.226689   -4.694854    0.853654
     28          1           0        0.956329   -3.327423    1.150727
     29          1           0        1.081419   -1.665138    1.748796
     30          1           0        3.533179   -1.796650    1.811887
     31          1           0        2.839104   -3.138420    2.730445
     32          6           0       -1.357239    0.432825   -0.712463
     33          1           0        0.176061    0.059229    0.761616
     34          6           0       -2.450324   -0.265673    0.103704
     35          1           0       -1.509901    0.246472   -1.781783
     36          1           0       -1.465351    1.514286   -0.578879
     37          6           0       -3.836550    0.286856   -0.171461
     38          1           0       -2.268547   -0.138427    1.180571
     39          1           0       -2.474642   -1.345873   -0.068366
     40          8           0       -4.080522    1.340492   -0.724257
     41          8           0       -4.791948   -0.543346    0.303924
     42          6           0       -6.166854   -0.107467    0.143029
     43          6           0       -7.059945   -1.178200    0.739986
     44          1           0       -6.921228   -2.135740    0.228938
     45          1           0       -8.108881   -0.881614    0.635564
     46          1           0       -6.847295   -1.319960    1.803973
     47          1           0       -6.360684    0.044022   -0.923066
     48          1           0       -6.287267    0.857249    0.645470
     49          8           0        1.347775    0.828238   -2.173100
     50          1           0        0.471605   -1.434523   -1.865040
 ---------------------------------------------------------------------
 Rotational constants (GHZ):           0.2478858           0.1370945           0.0998713
 Standard basis: 6-31+G(d,p) (6D, 7F)
 There are   572 symmetry adapted cartesian basis functions of A   symmetry.
 There are   572 symmetry adapted basis functions of A   symmetry.
   572 basis functions,   925 primitive gaussians,   572 cartesian basis functions
    86 alpha electrons       86 beta electrons
       nuclear repulsion energy      1901.7774794437 Hartrees.
 NAtoms=   50 NActive=   50 NUniq=   50 SFac= 1.00D+00 NAtFMM=   60 NAOKFM=F Big=F
 Integral buffers will be    131072 words long.
 Raffenetti 1 integral format.
 Two-electron integral symmetry is turned on.
 One-electron integrals computed using PRISM.
 NBasis=   572 RedAO= T EigKep=  1.56D-06  NBF=   572
 NBsUse=   571 1.00D-06 EigRej=  7.60D-07 NBFU=   571
 ExpMin= 4.38D-02 ExpMax= 5.48D+03 ExpMxC= 8.25D+02 IAcc=3 IRadAn=         5 AccDes= 0.00D+00
 Harris functional with IExCor=  205 and IRadAn=       5 diagonalized for initial guess.
 HarFok:  IExCor=  205 AccDes= 0.00D+00 IRadAn=         5 IDoV= 1 UseB2=F ITyADJ=14
 ICtDFT=  3500011 ScaDFX=  1.000000  1.000000  1.000000  1.000000
 FoFCou: FMM=F IPFlag=           0 FMFlag=      100000 FMFlg1=           0
         NFxFlg=           0 DoJE=T BraDBF=F KetDBF=T FulRan=T
         wScrn=  0.000000 ICntrl=       500 IOpCl=  0 I1Cent=   200000004 NGrid=           0
         NMat0=    1 NMatS0=      1 NMatT0=    0 NMatD0=    1 NMtDS0=    0 NMtDT0=    0
 Petite list used in FoFCou.
 Requested convergence on RMS density matrix=1.00D-08 within 128 cycles.
 Requested convergence on MAX density matrix=1.00D-06.
 Requested convergence on             energy=1.00D-06.
 No special actions if energy rises.
 SCF Done:  E(RHF) =  -1014.33880360     A.U. after   16 cycles
            NFock= 16  Conv=0.67D-08     -V/T= 2.0023
 ExpMin= 4.38D-02 ExpMax= 5.48D+03 ExpMxC= 8.25D+02 IAcc=3 IRadAn=         5 AccDes= 0.00D+00
 HarFok:  IExCor=  205 AccDes= 0.00D+00 IRadAn=         5 IDoV=-2 UseB2=F ITyADJ=14
 ICtDFT= 12500011 ScaDFX=  1.000000  1.000000  1.000000  1.000000
 GSVD:  LWork=        -713 too small for GESVD, short by        2990 words or        2990 for optimal perf.
 Range of M.O.s used for correlation:    24   571
 NBasis=   572 NAE=    86 NBE=    86 NFC=    23 NFV=     0
 NROrb=    548 NOA=    63 NOB=    63 NVA=   485 NVB=   485

 **** Warning!!: The largest alpha MO coefficient is  0.13243061D+03

 Orbital symmetries:
       Occupied  (A) (A) (A) (A) (A) (A) (A) (A) (A) (A) (A) (A)
                 (A) (A) (A) (A) (A) (A) (A) (A) (A) (A) (A) (A)
                 (A) (A) (A) (A) (A) (A) (A) (A) (A) (A) (A) (A)
                 (A) (A) (A) (A) (A) (A) (A) (A) (A) (A) (A) (A)
                 (A) (A) (A) (A) (A) (A) (A) (A) (A) (A) (A) (A)
                 (A) (A) (A) (A) (A) (A) (A) (A) (A) (A) (A) (A)
                 (A) (A) (A) (A) (A) (A) (A) (A) (A) (A) (A) (A)
                 (A) (A)
       Virtual   (A) (A) (A) (A) (A) (A) (A) (A) (A) (A) (A) (A)
                 (A) (A) (A) (A) (A) (A) (A) (A) (A) (A) (A) (A)
                 (A) (A) (A) (A) (A) (A) (A) (A) (A) (A) (A) (A)
                 (A) (A) (A) (A) (A) (A) (A) (A) (A) (A) (A) (A)
                 (A) (A) (A) (A) (A) (A) (A) (A) (A) (A) (A) (A)
                 (A) (A) (A) (A) (A) (A) (A) (A) (A) (A) (A) (A)
                 (A) (A) (A) (A) (A) (A) (A) (A) (A) (A) (A) (A)
                 (A) (A) (A) (A) (A) (A) (A) (A) (A) (A) (A) (A)
                 (A) (A) (A) (A) (A) (A) (A) (A) (A) (A) (A) (A)
                 (A) (A) (A) (A) (A) (A) (A) (A) (A) (A) (A) (A)
                 (A) (A) (A) (A) (A) (A) (A) (A) (A) (A) (A) (A)
                 (A) (A) (A) (A) (A) (A) (A) (A) (A) (A) (A) (A)
                 (A) (A) (A) (A) (A) (A) (A) (A) (A) (A) (A) (A)
                 (A) (A) (A) (A) (A) (A) (A) (A) (A) (A) (A) (A)
                 (A) (A) (A) (A) (A) (A) (A) (A) (A) (A) (A) (A)
                 (A) (A) (A) (A) (A) (A) (A) (A) (A) (A) (A) (A)
                 (A) (A) (A) (A) (A) (A) (A) (A) (A) (A) (A) (A)
                 (A) (A) (A) (A) (A) (A) (A) (A) (A) (A) (A) (A)
                 (A) (A) (A) (A) (A) (A) (A) (A) (A) (A) (A) (A)
                 (A) (A) (A) (A) (A) (A) (A) (A) (A) (A) (A) (A)
                 (A) (A) (A) (A) (A) (A) (A) (A) (A) (A) (A) (A)
                 (A) (A) (A) (A) (A) (A) (A) (A) (A) (A) (A) (A)
                 (A) (A) (A) (A) (A) (A) (A) (A) (A) (A) (A) (A)
                 (A) (A) (A) (A) (A) (A) (A) (A) (A) (A) (A) (A)
                 (A) (A) (A) (A) (A) (A) (A) (A) (A) (A) (A) (A)
                 (A) (A) (A) (A) (A) (A) (A) (A) (A) (A) (A) (A)
                 (A) (A) (A) (A) (A) (A) (A) (A) (A) (A) (A) (A)
                 (A) (A) (A) (A) (A) (A) (A) (A) (A) (A) (A) (A)
                 (A) (A) (A) (A) (A) (A) (A) (A) (A) (A) (A) (A)
                 (A) (A) (A) (A) (A) (A) (A) (A) (A) (A) (A) (A)
                 (A) (A) (A) (A) (A) (A) (A) (A) (A) (A) (A) (A)
                 (A) (A) (A) (A) (A) (A) (A) (A) (A) (A) (A) (A)
                 (A) (A) (A) (A) (A) (A) (A) (A) (A) (A) (A) (A)
                 (A) (A) (A) (A) (A) (A) (A) (A) (A) (A) (A) (A)
                 (A) (A) (A) (A) (A) (A) (A) (A) (A) (A) (A) (A)
                 (A) (A) (A) (A) (A) (A) (A) (A) (A) (A) (A) (A)
                 (A) (A) (A) (A) (A) (A) (A) (A) (A) (A) (A) (A)
                 (A) (A) (A) (A) (A) (A) (A) (A) (A) (A) (A) (A)
                 (A) (A) (A) (A) (A) (A) (A) (A) (A) (A) (A) (A)
                 (A) (A) (A) (A) (A) (A) (A) (A) (A) (A) (A) (A)
                 (A) (A) (A) (A) (A)
    48 initial guesses have been made.
 Convergence on wavefunction:    0.001000000000000
 Iteration     1 Dimension    48 NMult     0 NNew     48
 CISAX will form     3 AO SS matrices at one time.
 New state      1 was old state      2
 New state      2 was old state     16
 New state      3 was old state      4
 New state      4 was old state     20
 New state      5 was old state      1
 New state      6 was old state     34
 New state      7 was old state      3
 New state      8 was old state     33
 New state      9 was old state      8
 New state     10 was old state      7
 New state     11 was old state     10
 New state     12 was old state      9
 New state     13 was old state     12
 New state     14 was old state     11
 New state     15 was old state      6
 New state     16 was old state      5
 New state     17 was old state     42
 New state     18 was old state     41
 New state     19 was old state     22
 New state     20 was old state     21
 New state     21 was old state     19
 New state     22 was old state     25
 New state     23 was old state     26
 New state     24 was old state     38
 Iteration     2 Dimension    96 NMult    48 NNew     48
 New state      2 was old state      6
 New state      4 was old state      2
 New state      5 was old state      8
 New state      6 was old state      4
 New state      7 was old state      5
 New state      8 was old state      7
 New state     12 was old state     13
 New state     13 was old state     12
 New state     14 was old state     22
 New state     15 was old state     21
 New state     16 was old state     14
 New state     18 was old state     15
 New state     19 was old state     18
 New state     20 was old state     16
 New state     21 was old state     19
 New state     22 was old state     23
 New state     23 was old state     27
 New state     24 was old state     20
 Iteration     3 Dimension   108 NMult    96 NNew     12
 New state     11 was old state     13
 New state     12 was old state     14
 Iteration     4 Dimension   120 NMult   108 NNew     12
 No map to state      9
 Iteration     5 Dimension   132 NMult   120 NNew     12
 New state      6 was old state      9
 New state      7 was old state      6
 New state      8 was old state      7
 New state      9 was old state      8
 Iteration     6 Dimension   143 NMult   132 NNew     11
 Iteration     7 Dimension   151 NMult   143 NNew      8
 Iteration     8 Dimension   154 NMult   151 NNew      3
 ***********************************************************************
 Excited states from <AA,BB:AA,BB> singles matrix:
 ***********************************************************************
 
 Ground to excited state transition densities written to RWF  633
 Ground to excited state transition electric dipole moments (Au):
       state          X           Y           Z        Dip. S.      Osc.
         1        -0.0000     -0.0000     -0.0000      0.0000      0.0000
         2        -0.0000     -0.0000     -0.0000      0.0000      0.0000
         3        -0.0000     -0.0000     -0.0000      0.0000      0.0000
         4        -0.0000     -0.0000     -0.0000      0.0000      0.0000
         5         0.0798     -0.0476      0.0031      0.0087      0.0011
         6        -0.0000     -0.0000     -0.0000      0.0000      0.0000
         7         0.0000      0.0000     -0.0000      0.0000      0.0000
         8         0.4315      0.6123      0.0307      0.5621      0.0790
         9        -0.1527     -0.5280     -0.5555      0.6107      0.0870
        10        -0.1403      0.1138     -0.0953      0.0417      0.0073
        11        -0.2699      0.0413     -0.0852      0.0818      0.0147
        12        -1.2081     -2.1581     -0.7500      6.6793      1.2145
 Ground to excited state transition velocity dipole moments (Au):
       state          X           Y           Z        Dip. S.      Osc.
         1         0.0000      0.0000      0.0000      0.0000      0.0000
         2         0.0000      0.0000      0.0000      0.0000      0.0000
         3         0.0000      0.0000      0.0000      0.0000      0.0000
         4         0.0000      0.0000      0.0000      0.0000      0.0000
         5        -0.0289      0.0135      0.0001      0.0010      0.0037
         6        -0.0000      0.0000     -0.0000      0.0000      0.0000
         7        -0.0000      0.0000      0.0000      0.0000      0.0000
         8        -0.0340     -0.0692     -0.0096      0.0060      0.0191
         9         0.0424      0.0744      0.0031      0.0073      0.0229
        10         0.0289     -0.0221      0.0158      0.0016      0.0040
        11         0.0549     -0.0147      0.0238      0.0038      0.0094
        12         0.1672      0.3276      0.0705      0.1402      0.3428
 Ground to excited state transition magnetic dipole moments (Au):
       state          X           Y           Z
         1         0.0000      0.0000      0.0000
         2         0.0000      0.0000      0.0000
         3         0.0000      0.0000      0.0000
         4         0.0000      0.0000      0.0000
         5         0.1984     -0.1002     -0.7569
         6        -0.0000      0.0000      0.0000
         7         0.0000     -0.0000     -0.0000
         8         0.0042     -0.0686      0.0181
         9         0.3435     -0.1479      0.1021
        10         0.5560      0.5013     -0.1917
        11         0.2358     -0.1780     -0.9744
        12         0.4209     -0.1430      0.2072
 Ground to excited state transition velocity quadrupole moments (Au):
       state          XX          YY          ZZ          XY          XZ          YZ
         1         0.0000      0.0000      0.0000      0.0000      0.0000      0.0000
         2         0.0000      0.0000      0.0000      0.0000      0.0000      0.0000
         3         0.0000      0.0000      0.0000      0.0000      0.0000      0.0000
         4         0.0000      0.0000      0.0000      0.0000      0.0000      0.0000
         5         0.0801     -0.0145     -0.0165      0.0288     -0.0308     -0.0160
         6        -0.0000      0.0000     -0.0000      0.0000      0.0000     -0.0000
         7        -0.0000     -0.0000      0.0000     -0.0000      0.0000      0.0000
         8         0.1094     -0.2229      0.1027     -0.3538     -0.0290     -0.0649
         9        -0.0706      0.3026     -0.1162      0.3816      0.0787      0.1699
        10        -0.0935     -0.2836      0.3807      0.1910      0.4334     -0.1807
        11         0.9084     -0.8128      0.0140      0.4302      0.2092      0.2331
        12         0.0082      1.5702     -0.1855      1.7364      0.1859      0.3882
 <0|del|b> * <b|rxdel|0> + <0|del|b> * <b|delr+rdel|0>
 Rotatory Strengths (R) in cgs (10**-40 erg-esu-cm/Gauss)
       state          XX          YY          ZZ    R(velocity)    E-M Angle
         1         0.0000      0.0000      0.0000      0.0000       90.00
         2         0.0000      0.0000      0.0000      0.0000       90.00
         3         0.0000      0.0000      0.0000      0.0000       90.00
         4         0.0000      0.0000      0.0000      0.0000       90.00
         5        -1.9636    -10.4026    -15.4692     -9.2785      106.55
         6         0.0000      0.0000      0.0000      0.0000       90.00
         7        -0.0000     -0.0000      0.0000     -0.0000       90.00
         8         9.9913     -2.5102      7.3883      4.9565       36.65
         9       -25.4415     34.6246      3.6694      4.2842       83.29
        10        -2.0429      6.4504      0.8267      1.7447       86.38
        11        -9.5448    -10.0558     -0.4071     -6.6693       96.96
        12        37.9189     35.6192     25.2689     32.9357       78.02
 1/2[<0|r|b>*<b|rxdel|0> + (<0|rxdel|b>*<b|r|0>)*]
 Rotatory Strengths (R) in cgs (10**-40 erg-esu-cm/Gauss)
       state          XX          YY          ZZ     R(length)
         1         0.0000      0.0000      0.0000      0.0000
         2         0.0000      0.0000      0.0000      0.0000
         3         0.0000      0.0000      0.0000      0.0000
         4         0.0000      0.0000      0.0000      0.0000
         5       -11.2005     -3.3750      1.6792     -4.2988
         6        -0.0000      0.0000      0.0000     -0.0000
         7        -0.0000      0.0000     -0.0000     -0.0000
         8        -1.2924     29.7197     -0.3944      9.3443
         9        37.0804    -55.2187     40.1171      7.3263
        10        55.1712    -40.3379    -12.9155      0.6393
        11        45.0018      5.1960    -58.7041     -2.8354
        12       359.5941   -218.2715    109.9059     83.7428
  1/2[<0|del|b>*<b|r|0> + (<0|r|b>*<b|del|0>)*] (Au)
       state          X           Y           Z        Dip. S.   Osc.(frdel)
         1        -0.0000     -0.0000     -0.0000      0.0000      0.0000
         2        -0.0000     -0.0000     -0.0000      0.0000      0.0000
         3        -0.0000     -0.0000     -0.0000      0.0000      0.0000
         4        -0.0000     -0.0000     -0.0000      0.0000      0.0000
         5        -0.0023     -0.0006      0.0000      0.0030      0.0020
         6         0.0000     -0.0000      0.0000      0.0000      0.0000
         7        -0.0000      0.0000     -0.0000      0.0000      0.0000
         8        -0.0147     -0.0424     -0.0003      0.0573      0.0382
         9        -0.0065     -0.0393     -0.0017      0.0475      0.0316
        10        -0.0040     -0.0025     -0.0015      0.0081      0.0054
        11        -0.0148     -0.0006     -0.0020      0.0175      0.0116
        12        -0.2019     -0.7070     -0.0529      0.9618      0.6412

 Excitation energies and oscillator strengths:
 
 Excited State   1:      Triplet-A      3.1359 eV  395.37 nm  f=0.0000  <S**2>=2.000
      85 -> 88        -0.30347
      85 -> 90         0.10199
      85 -> 99        -0.13069
      85 ->100         0.21051
      86 -> 88         0.35217
      86 -> 90        -0.14186
      86 -> 99        -0.12687
      86 ->100         0.18229
      86 ->135        -0.11720
 This state for optimization and/or second-order correction.
 Total Energy, E(CIS/TDA) =  -1014.22356217    
 Copying the excited state density for this state as the 1-particle RhoCI density.
 
 Excited State   2:      Triplet-A      4.3206 eV  286.96 nm  f=0.0000  <S**2>=2.000
      83 -> 88         0.46969
      83 -> 90        -0.17907
      83 ->114         0.14473
      83 ->116        -0.11071
      83 ->118         0.17069
      83 ->120        -0.13630
      83 ->135         0.16247
 
 Excited State   3:      Triplet-A      4.5389 eV  273.16 nm  f=0.0000  <S**2>=2.000
      85 -> 88         0.34362
      85 -> 90        -0.11992
      85 -> 99         0.12327
      85 ->100        -0.19703
      86 -> 88         0.43513
      86 -> 90        -0.16386
      86 ->135        -0.10338
 
 Excited State   4:      Triplet-A      4.6203 eV  268.35 nm  f=0.0000  <S**2>=2.000
      85 -> 88         0.31876
      85 -> 90        -0.12742
      85 -> 99        -0.13603
      85 ->100         0.19706
      86 -> 88        -0.14365
      86 -> 99        -0.21382
      86 ->100         0.33155
 
 Excited State   5:      Singlet-A      4.9578 eV  250.08 nm  f=0.0011  <S**2>=0.000
      83 -> 88         0.48139
      83 -> 90        -0.18243
      83 ->114         0.14164
      83 ->116        -0.10843
      83 ->118         0.16876
      83 ->120        -0.13353
      83 ->135         0.15707
 
 Excited State   6:      Triplet-A      5.3250 eV  232.84 nm  f=0.0000  <S**2>=2.000
      65 -> 88         0.10772
      66 -> 88        -0.11279
      76 -> 88         0.18477
      77 -> 88        -0.26013
      85 ->100        -0.10181
      85 ->135         0.11809
      86 ->135        -0.12452
 
 Excited State   7:      Triplet-A      5.6110 eV  220.97 nm  f=0.0000  <S**2>=2.000
      85 -> 88         0.15793
      85 -> 99        -0.23294
      85 ->100         0.34745
      86 -> 88         0.12586
      86 -> 99         0.21600
      86 ->100        -0.33390
 
 Excited State   8:      Singlet-A      5.7368 eV  216.12 nm  f=0.0790  <S**2>=0.000
      85 -> 99        -0.16573
      85 ->100         0.24650
      86 -> 88         0.53701
      86 -> 89        -0.10303
      86 -> 90        -0.18787
 
 Excited State   9:      Singlet-A      5.8116 eV  213.34 nm  f=0.0870  <S**2>=0.000
      85 -> 88         0.50388
      85 -> 90        -0.17820
      86 -> 99         0.18782
      86 ->100        -0.28415
 
 Excited State  10:      Singlet-A      7.1095 eV  174.39 nm  f=0.0073  <S**2>=0.000
      85 -> 87         0.18196
      85 -> 89         0.14280
      86 -> 87         0.41482
      86 -> 89         0.41024
      86 -> 90        -0.11724
 
 Excited State  11:      Singlet-A      7.3155 eV  169.48 nm  f=0.0147  <S**2>=0.000
      85 -> 87        -0.35793
      85 -> 89        -0.41047
      85 -> 90         0.12110
      85 -> 91        -0.16197
      85 ->103         0.10875
      86 -> 87         0.12522
      86 -> 89         0.16871
 
 Excited State  12:      Singlet-A      7.4219 eV  167.05 nm  f=1.2145  <S**2>=0.000
      85 -> 88         0.11971
      85 -> 90        -0.10026
      85 -> 96        -0.10239
      85 -> 97        -0.11590
      85 -> 99        -0.23387
      85 ->100         0.37009
      86 -> 88        -0.22997
      86 -> 99        -0.15235
      86 ->100         0.22466
 SavETr:  write IOETrn=   770 NScale= 10 NData=  16 NLR=1 NState=   12 LETran=     226.

 **********************************************************************

            Population analysis using the SCF Density.

 **********************************************************************

 Orbital symmetries:
       Occupied  (A) (A) (A) (A) (A) (A) (A) (A) (A) (A) (A) (A)
                 (A) (A) (A) (A) (A) (A) (A) (A) (A) (A) (A) (A)
                 (A) (A) (A) (A) (A) (A) (A) (A) (A) (A) (A) (A)
                 (A) (A) (A) (A) (A) (A) (A) (A) (A) (A) (A) (A)
                 (A) (A) (A) (A) (A) (A) (A) (A) (A) (A) (A) (A)
                 (A) (A) (A) (A) (A) (A) (A) (A) (A) (A) (A) (A)
                 (A) (A) (A) (A) (A) (A) (A) (A) (A) (A) (A) (A)
                 (A) (A)
       Virtual   (A) (A) (A) (A) (A) (A) (A) (A) (A) (A) (A) (A)
                 (A) (A) (A) (A) (A) (A) (A) (A) (A) (A) (A) (A)
                 (A) (A) (A) (A) (A) (A) (A) (A) (A) (A) (A) (A)
                 (A) (A) (A) (A) (A) (A) (A) (A) (A) (A) (A) (A)
                 (A) (A) (A) (A) (A) (A) (A) (A) (A) (A) (A) (A)
                 (A) (A) (A) (A) (A) (A) (A) (A) (A) (A) (A) (A)
                 (A) (A) (A) (A) (A) (A) (A) (A) (A) (A) (A) (A)
                 (A) (A) (A) (A) (A) (A) (A) (A) (A) (A) (A) (A)
                 (A) (A) (A) (A) (A) (A) (A) (A) (A) (A) (A) (A)
                 (A) (A) (A) (A) (A) (A) (A) (A) (A) (A) (A) (A)
                 (A) (A) (A) (A) (A) (A) (A) (A) (A) (A) (A) (A)
                 (A) (A) (A) (A) (A) (A) (A) (A) (A) (A) (A) (A)
                 (A) (A) (A) (A) (A) (A) (A) (A) (A) (A) (A) (A)
                 (A) (A) (A) (A) (A) (A) (A) (A) (A) (A) (A) (A)
                 (A) (A) (A) (A) (A) (A) (A) (A) (A) (A) (A) (A)
                 (A) (A) (A) (A) (A) (A) (A) (A) (A) (A) (A) (A)
                 (A) (A) (A) (A) (A) (A) (A) (A) (A) (A) (A) (A)
                 (A) (A) (A) (A) (A) (A) (A) (A) (A) (A) (A) (A)
                 (A) (A) (A) (A) (A) (A) (A) (A) (A) (A) (A) (A)
                 (A) (A) (A) (A) (A) (A) (A) (A) (A) (A) (A) (A)
                 (A) (A) (A) (A) (A) (A) (A) (A) (A) (A) (A) (A)
                 (A) (A) (A) (A) (A) (A) (A) (A) (A) (A) (A) (A)
                 (A) (A) (A) (A) (A) (A) (A) (A) (A) (A) (A) (A)
                 (A) (A) (A) (A) (A) (A) (A) (A) (A) (A) (A) (A)
                 (A) (A) (A) (A) (A) (A) (A) (A) (A) (A) (A) (A)
                 (A) (A) (A) (A) (A) (A) (A) (A) (A) (A) (A) (A)
                 (A) (A) (A) (A) (A) (A) (A) (A) (A) (A) (A) (A)
                 (A) (A) (A) (A) (A) (A) (A) (A) (A) (A) (A) (A)
                 (A) (A) (A) (A) (A) (A) (A) (A) (A) (A) (A) (A)
                 (A) (A) (A) (A) (A) (A) (A) (A) (A) (A) (A) (A)
                 (A) (A) (A) (A) (A) (A) (A) (A) (A) (A) (A) (A)
                 (A) (A) (A) (A) (A) (A) (A) (A) (A) (A) (A) (A)
                 (A) (A) (A) (A) (A) (A) (A) (A) (A) (A) (A) (A)
                 (A) (A) (A) (A) (A) (A) (A) (A) (A) (A) (A) (A)
                 (A) (A) (A) (A) (A) (A) (A) (A) (A) (A) (A) (A)
                 (A) (A) (A) (A) (A) (A) (A) (A) (A) (A) (A) (A)
                 (A) (A) (A) (A) (A) (A) (A) (A) (A) (A) (A) (A)
                 (A) (A) (A) (A) (A) (A) (A) (A) (A) (A) (A) (A)
                 (A) (A) (A) (A) (A) (A) (A) (A) (A) (A) (A) (A)
                 (A) (A) (A) (A) (A) (A) (A) (A) (A) (A) (A) (A)
                 (A) (A) (A) (A) (A)
 The electronic state is 1-A.
 Alpha  occ. eigenvalues --  -20.61596 -20.56237 -20.55364 -15.55318 -11.39091
 Alpha  occ. eigenvalues --  -11.33769 -11.29693 -11.25969 -11.25679 -11.25456
 Alpha  occ. eigenvalues --  -11.25418 -11.25363 -11.25233 -11.25037 -11.24987
 Alpha  occ. eigenvalues --  -11.24757 -11.24683 -11.24652 -11.24098 -11.23273
 Alpha  occ. eigenvalues --  -11.22170 -11.22098 -11.21803  -1.45988  -1.38119
 Alpha  occ. eigenvalues --   -1.36008  -1.23232  -1.16316  -1.10665  -1.06998
 Alpha  occ. eigenvalues --   -1.05186  -1.03805  -1.02584  -1.01365  -1.00429
 Alpha  occ. eigenvalues --   -0.92237  -0.89181  -0.86123  -0.84849  -0.84028
 Alpha  occ. eigenvalues --   -0.83700  -0.80980  -0.77496  -0.75457  -0.74583
 Alpha  occ. eigenvalues --   -0.71767  -0.69735  -0.68658  -0.67375  -0.66845
 Alpha  occ. eigenvalues --   -0.65538  -0.64426  -0.63816  -0.62759  -0.61717
 Alpha  occ. eigenvalues --   -0.61407  -0.60609  -0.59977  -0.59709  -0.58448
 Alpha  occ. eigenvalues --   -0.57673  -0.56514  -0.55961  -0.55414  -0.54756
 Alpha  occ. eigenvalues --   -0.53767  -0.53263  -0.52181  -0.51898  -0.51413
 Alpha  occ. eigenvalues --   -0.50885  -0.50306  -0.50018  -0.49404  -0.48790
 Alpha  occ. eigenvalues --   -0.48100  -0.47867  -0.46280  -0.45990  -0.44875
 Alpha  occ. eigenvalues --   -0.44272  -0.43802  -0.40760  -0.35126  -0.34629
 Alpha  occ. eigenvalues --   -0.34177
 Alpha virt. eigenvalues --    0.05984   0.06934   0.07274   0.07692   0.07903
 Alpha virt. eigenvalues --    0.08524   0.08609   0.09010   0.09207   0.09486
 Alpha virt. eigenvalues --    0.10132   0.10300   0.10544   0.10788   0.11069
 Alpha virt. eigenvalues --    0.11322   0.12165   0.12308   0.12611   0.12768
 Alpha virt. eigenvalues --    0.13351   0.13821   0.14253   0.14558   0.14762
 Alpha virt. eigenvalues --    0.15135   0.15532   0.16156   0.16507   0.16761
 Alpha virt. eigenvalues --    0.17031   0.17267   0.17762   0.17824   0.18406
 Alpha virt. eigenvalues --    0.18566   0.18745   0.19583   0.19660   0.20090
 Alpha virt. eigenvalues --    0.20681   0.21056   0.21319   0.21440   0.22017
 Alpha virt. eigenvalues --    0.22363   0.22541   0.23403   0.23725   0.24416
 Alpha virt. eigenvalues --    0.24758   0.24887   0.25576   0.25895   0.26146
 Alpha virt. eigenvalues --    0.26446   0.26961   0.27160   0.27497   0.28057
 Alpha virt. eigenvalues --    0.28158   0.28347   0.28538   0.29171   0.29994
 Alpha virt. eigenvalues --    0.30373   0.30529   0.31000   0.31108   0.31591
 Alpha virt. eigenvalues --    0.32129   0.32505   0.32708   0.33818   0.34139
 Alpha virt. eigenvalues --    0.34494   0.34571   0.35326   0.35960   0.36037
 Alpha virt. eigenvalues --    0.36391   0.37095   0.37347   0.37717   0.38123
 Alpha virt. eigenvalues --    0.38572   0.38893   0.39362   0.39800   0.39820
 Alpha virt. eigenvalues --    0.40037   0.40392   0.40970   0.41184   0.41442
 Alpha virt. eigenvalues --    0.41740   0.42067   0.42502   0.42921   0.43584
 Alpha virt. eigenvalues --    0.43758   0.44046   0.44535   0.44876   0.45078
 Alpha virt. eigenvalues --    0.45166   0.46008   0.46319   0.46554   0.47353
 Alpha virt. eigenvalues --    0.47591   0.48013   0.48189   0.49036   0.49288
 Alpha virt. eigenvalues --    0.49518   0.50434   0.50757   0.51229   0.51456
 Alpha virt. eigenvalues --    0.51859   0.52592   0.52716   0.53155   0.53490
 Alpha virt. eigenvalues --    0.54394   0.54837   0.55010   0.56155   0.56265
 Alpha virt. eigenvalues --    0.56958   0.57813   0.58903   0.60005   0.60269
 Alpha virt. eigenvalues --    0.61256   0.61596   0.62681   0.63534   0.64729
 Alpha virt. eigenvalues --    0.66073   0.67910   0.68487   0.72509   0.73300
 Alpha virt. eigenvalues --    0.80055   0.83890   0.84844   0.86149   0.86557
 Alpha virt. eigenvalues --    0.87061   0.87568   0.88935   0.89295   0.90851
 Alpha virt. eigenvalues --    0.91025   0.91949   0.92328   0.93052   0.93770
 Alpha virt. eigenvalues --    0.94322   0.95408   0.96143   0.96431   0.96938
 Alpha virt. eigenvalues --    0.97580   0.98398   0.98503   0.99688   0.99826
 Alpha virt. eigenvalues --    1.00106   1.00753   1.00788   1.01392   1.02120
 Alpha virt. eigenvalues --    1.02433   1.02794   1.04288   1.05030   1.05555
 Alpha virt. eigenvalues --    1.06489   1.06832   1.07715   1.08400   1.09797
 Alpha virt. eigenvalues --    1.10328   1.12398   1.13902   1.14535   1.15427
 Alpha virt. eigenvalues --    1.15891   1.16772   1.17284   1.17861   1.18307
 Alpha virt. eigenvalues --    1.18691   1.20057   1.20974   1.22273   1.22547
 Alpha virt. eigenvalues --    1.22821   1.23709   1.23901   1.24246   1.25676
 Alpha virt. eigenvalues --    1.26148   1.26380   1.27096   1.27873   1.28473
 Alpha virt. eigenvalues --    1.28771   1.29903   1.30944   1.31880   1.33893
 Alpha virt. eigenvalues --    1.34519   1.35089   1.35390   1.36549   1.37112
 Alpha virt. eigenvalues --    1.37281   1.38050   1.38682   1.39268   1.39764
 Alpha virt. eigenvalues --    1.40581   1.41352   1.41799   1.42313   1.43377
 Alpha virt. eigenvalues --    1.43632   1.44559   1.45240   1.45769   1.48090
 Alpha virt. eigenvalues --    1.48226   1.48882   1.49946   1.50970   1.51713
 Alpha virt. eigenvalues --    1.54222   1.54444   1.55372   1.58137   1.59172
 Alpha virt. eigenvalues --    1.60258   1.60625   1.60963   1.62214   1.63929
 Alpha virt. eigenvalues --    1.64603   1.65372   1.66600   1.67011   1.68011
 Alpha virt. eigenvalues --    1.68401   1.68840   1.69000   1.69658   1.70530
 Alpha virt. eigenvalues --    1.71479   1.73181   1.74086   1.75532   1.76700
 Alpha virt. eigenvalues --    1.77944   1.79688   1.80274   1.81235   1.82552
 Alpha virt. eigenvalues --    1.83362   1.83992   1.87760   1.89515   1.90951
 Alpha virt. eigenvalues --    1.91861   1.93347   1.94991   1.96746   1.97056
 Alpha virt. eigenvalues --    1.99316   2.01769   2.01997   2.03155   2.05608
 Alpha virt. eigenvalues --    2.06842   2.07489   2.08436   2.09316   2.11178
 Alpha virt. eigenvalues --    2.12961   2.13679   2.14292   2.15323   2.16125
 Alpha virt. eigenvalues --    2.17503   2.18004   2.18957   2.19780   2.21836
 Alpha virt. eigenvalues --    2.22545   2.23326   2.23540   2.24215   2.25023
 Alpha virt. eigenvalues --    2.25250   2.26702   2.27342   2.27602   2.27858
 Alpha virt. eigenvalues --    2.28703   2.29941   2.30574   2.30696   2.31669
 Alpha virt. eigenvalues --    2.32630   2.33354   2.33835   2.34150   2.35200
 Alpha virt. eigenvalues --    2.36424   2.37021   2.38431   2.38795   2.39586
 Alpha virt. eigenvalues --    2.40258   2.40597   2.41169   2.42055   2.42632
 Alpha virt. eigenvalues --    2.43343   2.43877   2.44138   2.45836   2.46289
 Alpha virt. eigenvalues --    2.47724   2.48803   2.49839   2.49948   2.50410
 Alpha virt. eigenvalues --    2.52558   2.53877   2.55816   2.56128   2.57332
 Alpha virt. eigenvalues --    2.58098   2.59359   2.60324   2.61059   2.62132
 Alpha virt. eigenvalues --    2.63760   2.64107   2.65406   2.66412   2.67534
 Alpha virt. eigenvalues --    2.68063   2.69073   2.69594   2.70181   2.70935
 Alpha virt. eigenvalues --    2.71757   2.72241   2.72566   2.74596   2.74921
 Alpha virt. eigenvalues --    2.75997   2.78001   2.79116   2.79874   2.80708
 Alpha virt. eigenvalues --    2.81070   2.81869   2.83079   2.84560   2.85444
 Alpha virt. eigenvalues --    2.85871   2.86251   2.87990   2.89410   2.90210
 Alpha virt. eigenvalues --    2.91317   2.92170   2.92377   2.93130   2.94569
 Alpha virt. eigenvalues --    2.95138   2.97086   2.98295   2.98928   2.99839
 Alpha virt. eigenvalues --    3.01042   3.02133   3.02641   3.04403   3.05697
 Alpha virt. eigenvalues --    3.05939   3.06300   3.07288   3.07364   3.08887
 Alpha virt. eigenvalues --    3.09945   3.11883   3.12440   3.12842   3.14031
 Alpha virt. eigenvalues --    3.14653   3.15574   3.17828   3.18366   3.18721
 Alpha virt. eigenvalues --    3.20718   3.21407   3.21864   3.22188   3.23490
 Alpha virt. eigenvalues --    3.24297   3.25268   3.26203   3.26717   3.27704
 Alpha virt. eigenvalues --    3.29547   3.30691   3.32460   3.32745   3.36236
 Alpha virt. eigenvalues --    3.39122   3.41947   3.43892   3.44453   3.45748
 Alpha virt. eigenvalues --    3.53821   3.56318   3.57359   3.61662   3.62253
 Alpha virt. eigenvalues --    3.62586   3.65953   3.67291   3.69176   3.69997
 Alpha virt. eigenvalues --    3.70796   3.71488   3.71678   3.72846   3.73759
 Alpha virt. eigenvalues --    3.76707   3.78003   3.78102   3.80591   3.81623
 Alpha virt. eigenvalues --    3.85072   3.86498   3.88795   3.89257   3.89375
 Alpha virt. eigenvalues --    3.89834   3.91262   3.93259   3.94635   3.97663
 Alpha virt. eigenvalues --    4.00078   4.28250   4.70220   4.71541   4.72514
 Alpha virt. eigenvalues --    4.77425   4.79684   4.80593   4.81745   4.84988
 Alpha virt. eigenvalues --    4.86720   4.90133   4.91750   4.93625   4.96931
 Alpha virt. eigenvalues --    4.99008   5.04448   5.08451   5.09317   5.16266
 Alpha virt. eigenvalues --    5.19352   5.21971   5.27181   5.27607   5.35330
          Condensed to atoms (all electrons):
               1          2          3          4          5          6
     1  C    6.896537  -0.163254  -0.235568  -0.791874   0.378011  -0.105400
     2  C   -0.163254  18.938847  -5.825465  -2.301402   1.849653  -1.486030
     3  C   -0.235568  -5.825465  11.312431   0.387554  -1.296213   0.867228
     4  C   -0.791874  -2.301402   0.387554  11.779789  -1.162327  -1.754483
     5  C    0.378011   1.849653  -1.296213  -1.162327  11.396233  -1.705579
     6  C   -0.105400  -1.486030   0.867228  -1.754483  -1.705579  11.501995
     7  C   -0.347598   0.554082  -0.576366   0.325461  -2.175806  -2.181204
     8  C    0.012902  -0.097825   0.007744  -1.518035   0.691240   1.216383
     9  C   -0.525471  -0.107543   0.020859   0.590685  -1.479787  -1.123496
    10  H    0.005299   0.000935   0.000066  -0.001989   0.016706   0.077908
    11  H    0.156802   0.035950   0.003618   0.014884   0.017189   0.251739
    12  H    0.001668   0.001209   0.000073   0.038605  -0.004447  -0.035932
    13  H    0.010280  -0.000029   0.000079  -0.019533   0.106737   0.028346
    14  H   -0.010519  -0.073441   0.009749   0.299951   0.113340   0.002526
    15  N    0.021003   0.323453  -0.259875  -0.028061   0.093524  -0.042547
    16  H   -0.023706   0.096785   0.310547  -0.000559  -0.010806   0.005800
    17  C    0.059932  -0.195400  -0.003112   0.006137   0.060173  -0.065306
    18  C    0.031290   0.554654  -0.693001  -0.045956   0.049341  -0.047756
    19  C    0.002897  -0.015143  -0.187823   0.004053   0.000265  -0.008504
    20  H   -0.005288   0.013725  -0.019690  -0.004457   0.003577  -0.008917
    21  H    0.002607  -0.017136   0.095002   0.002587  -0.002385   0.002255
    22  C   -0.006555  -0.036861  -0.010324  -0.007408   0.005228   0.001510
    23  H    0.000911  -0.006367   0.011700   0.001109  -0.000905   0.001578
    24  H    0.000118  -0.000559   0.008723  -0.000325   0.000017   0.000017
    25  C    0.022562   0.090957  -0.171608  -0.018739   0.018200  -0.010576
    26  H    0.000082  -0.000450   0.001256   0.000072  -0.000095   0.000046
    27  H    0.000220   0.000113   0.004084   0.000078  -0.000019   0.000026
    28  H   -0.006603  -0.036220   0.119058   0.001144  -0.002362   0.000792
    29  H    0.013616   0.037729  -0.067995   0.003250   0.004651   0.000644
    30  H    0.000791  -0.000971   0.000794  -0.001862   0.004333  -0.000565
    31  H   -0.001550   0.003273   0.006441   0.001213  -0.001071   0.000314
    32  C   -0.011074  -8.654534   3.603133   1.082589  -1.323330   0.747189
    33  H   -0.049578   0.631468  -0.198380  -0.057636   0.070757  -0.040661
    34  C   -0.228544   0.802418  -0.615952  -0.045390   0.009870   0.014021
    35  H   -0.019119   0.038973   0.026234  -0.008782  -0.003935   0.002418
    36  H   -0.044198   0.287340  -0.109594  -0.064731   0.113130  -0.063469
    37  C   -0.108172  -0.017165  -0.051369  -0.225413   0.166701  -0.105587
    38  H   -0.015303   0.030844  -0.019757   0.005069  -0.002467  -0.000484
    39  H    0.015367  -0.013664   0.013306  -0.001925   0.003339  -0.001029
    40  O    0.008430   0.004711   0.000610   0.001403  -0.001032   0.000171
    41  O    0.003287  -0.039885   0.010395   0.000263  -0.001630   0.000030
    42  C   -0.003967   0.012952   0.004560  -0.002444   0.001647  -0.001168
    43  C   -0.000838   0.009099  -0.003227  -0.000553   0.000573  -0.000079
    44  H    0.000008  -0.000239   0.000123   0.000002  -0.000002   0.000000
    45  H   -0.000001   0.000013  -0.000008  -0.000000   0.000000   0.000000
    46  H    0.000003  -0.000069   0.000010  -0.000000   0.000000  -0.000000
    47  H   -0.000092   0.000402  -0.000380  -0.000031   0.000026  -0.000002
    48  H    0.000032  -0.001371   0.000322   0.000075  -0.000080   0.000005
    49  O    0.758523  -0.017071  -0.107621  -0.146749  -0.012212  -0.048247
    50  H    0.034706  -0.167296   0.462556   0.015049   0.006474  -0.013587
               7          8          9         10         11         12
     1  C   -0.347598   0.012902  -0.525471   0.005299   0.156802   0.001668
     2  C    0.554082  -0.097825  -0.107543   0.000935   0.035950   0.001209
     3  C   -0.576366   0.007744   0.020859   0.000066   0.003618   0.000073
     4  C    0.325461  -1.518035   0.590685  -0.001989   0.014884   0.038605
     5  C   -2.175806   0.691240  -1.479787   0.016706   0.017189  -0.004447
     6  C   -2.181204   1.216383  -1.123496   0.077908   0.251739  -0.035932
     7  C   10.312283  -0.628312   1.154767  -0.031716  -0.001882   0.058117
     8  C   -0.628312   6.596886  -0.497209   0.095275  -0.020543   0.196230
     9  C    1.154767  -0.497209   7.794049   0.185269  -0.102071   0.091690
    10  H   -0.031716   0.095275   0.185269   0.479735  -0.001313  -0.001528
    11  H   -0.001882  -0.020543  -0.102071  -0.001313   0.447697  -0.000082
    12  H    0.058117   0.196230   0.091690  -0.001528  -0.000082   0.481327
    13  H    0.145917   0.114326  -0.038309  -0.000091   0.000008  -0.001542
    14  H   -0.057802  -0.044333   0.027234   0.000010  -0.000104  -0.000104
    15  N    0.056710   0.002164  -0.000186  -0.000003  -0.000090  -0.000001
    16  H    0.000198  -0.000079   0.000357   0.000000   0.000000  -0.000000
    17  C   -0.000872  -0.000610  -0.002135  -0.000003  -0.000376  -0.000000
    18  C    0.061298  -0.001705   0.000488   0.000002   0.000086  -0.000004
    19  C   -0.005253  -0.000316  -0.001318   0.000002   0.000073   0.000000
    20  H    0.000105  -0.000028  -0.001052  -0.000000   0.000001   0.000000
    21  H   -0.000087   0.000005   0.000086   0.000000  -0.000000   0.000000
    22  C    0.001121   0.001116  -0.000856   0.000001   0.000011  -0.000000
    23  H   -0.000122   0.000047   0.000255  -0.000000   0.000000  -0.000000
    24  H   -0.000017   0.000003  -0.000008   0.000000  -0.000000  -0.000000
    25  C   -0.009861  -0.000676  -0.000374  -0.000003   0.000058   0.000000
    26  H   -0.000015  -0.000001   0.000003  -0.000000  -0.000000   0.000000
    27  H   -0.000011   0.000001   0.000001  -0.000000   0.000000  -0.000000
    28  H    0.000052  -0.000002   0.000054   0.000000  -0.000000  -0.000000
    29  H   -0.003681  -0.000078  -0.000192  -0.000000   0.000000  -0.000000
    30  H   -0.001424   0.000224   0.000396   0.000000   0.000000  -0.000000
    31  H    0.000089   0.000009  -0.000006   0.000000  -0.000000  -0.000000
    32  C   -0.567822  -0.021310   0.135431  -0.000025   0.001153  -0.000106
    33  H    0.038377  -0.002210  -0.004728  -0.000000   0.000013   0.000000
    34  C    0.081688   0.003657  -0.008864  -0.000008   0.000243   0.000004
    35  H   -0.000643   0.000325  -0.001728  -0.000000   0.000003   0.000000
    36  H    0.058847   0.000052  -0.004015  -0.000000  -0.000001   0.000000
    37  C    0.070692  -0.003126  -0.000544   0.000001   0.000177   0.000002
    38  H    0.000994  -0.000316  -0.000075  -0.000000   0.000000   0.000000
    39  H    0.000175   0.000037  -0.000003  -0.000000  -0.000000  -0.000000
    40  O   -0.000995   0.000027   0.000183  -0.000000   0.000000  -0.000000
    41  O   -0.000826  -0.000031   0.000029   0.000000  -0.000000   0.000000
    42  C    0.000913  -0.000009  -0.000044  -0.000000   0.000000   0.000000
    43  C    0.000162   0.000002  -0.000005  -0.000000   0.000000   0.000000
    44  H   -0.000000  -0.000000   0.000000   0.000000  -0.000000   0.000000
    45  H    0.000000   0.000000  -0.000000   0.000000  -0.000000   0.000000
    46  H   -0.000000  -0.000000   0.000000  -0.000000   0.000000  -0.000000
    47  H    0.000003  -0.000000  -0.000000   0.000000   0.000000   0.000000
    48  H   -0.000019   0.000000  -0.000000  -0.000000   0.000000  -0.000000
    49  O   -0.008291   0.001786   0.076053   0.000013  -0.009623   0.000002
    50  H   -0.000771   0.000101  -0.002529  -0.000000   0.000002   0.000000
              13         14         15         16         17         18
     1  C    0.010280  -0.010519   0.021003  -0.023706   0.059932   0.031290
     2  C   -0.000029  -0.073441   0.323453   0.096785  -0.195400   0.554654
     3  C    0.000079   0.009749  -0.259875   0.310547  -0.003112  -0.693001
     4  C   -0.019533   0.299951  -0.028061  -0.000559   0.006137  -0.045956
     5  C    0.106737   0.113340   0.093524  -0.010806   0.060173   0.049341
     6  C    0.028346   0.002526  -0.042547   0.005800  -0.065306  -0.047756
     7  C    0.145917  -0.057802   0.056710   0.000198  -0.000872   0.061298
     8  C    0.114326  -0.044333   0.002164  -0.000079  -0.000610  -0.001705
     9  C   -0.038309   0.027234  -0.000186   0.000357  -0.002135   0.000488
    10  H   -0.000091   0.000010  -0.000003   0.000000  -0.000003   0.000002
    11  H    0.000008  -0.000104  -0.000090   0.000000  -0.000376   0.000086
    12  H   -0.001542  -0.000104  -0.000001  -0.000000  -0.000000  -0.000004
    13  H    0.483124  -0.001776  -0.000009  -0.000000  -0.000005  -0.000069
    14  H   -0.001776   0.519429  -0.001601   0.000011   0.000110   0.002718
    15  N   -0.000009  -0.001601   7.387510  -0.105359   0.155797   0.186309
    16  H   -0.000000   0.000011  -0.105359   0.634203  -0.038905   0.048778
    17  C   -0.000005   0.000110   0.155797  -0.038905   5.295300  -0.063343
    18  C   -0.000069   0.002718   0.186309   0.048778  -0.063343   5.478254
    19  C    0.000001   0.000062  -0.079336  -0.006518   0.202925   0.023025
    20  H    0.000000  -0.000000  -0.046455  -0.000007   0.346973  -0.002503
    21  H   -0.000000  -0.000000  -0.097427   0.003623   0.416129   0.042571
    22  C    0.000004  -0.000061   0.050816  -0.004287  -0.176313  -0.236122
    23  H   -0.000000   0.000000  -0.007791  -0.000003  -0.010818   0.016481
    24  H    0.000000  -0.000000   0.018862   0.000008   0.008803  -0.018982
    25  C    0.000035  -0.001094  -0.072629   0.007193   0.005600   0.176325
    26  H   -0.000000   0.000000   0.000503  -0.000000   0.031553   0.048383
    27  H    0.000000  -0.000000   0.000501   0.000005   0.002425  -0.000585
    28  H   -0.000000   0.000000  -0.116140   0.007493   0.044027   0.405528
    29  H    0.000000  -0.000085  -0.033617  -0.001517   0.006103   0.306039
    30  H    0.000000  -0.000003  -0.004241   0.000000   0.010477  -0.022659
    31  H    0.000000  -0.000000   0.018919   0.000011  -0.014598  -0.012567
    32  C   -0.000046   0.077923  -0.378709  -0.013674  -0.017872  -0.358354
    33  H    0.000004  -0.001548   0.007761  -0.002861  -0.000932   0.036740
    34  C   -0.000020  -0.012139   0.012219   0.064561  -0.015154   0.078610
    35  H    0.000000  -0.000017  -0.000339  -0.000222  -0.001678   0.001636
    36  H   -0.000000  -0.000395   0.003634  -0.000086  -0.000445   0.001209
    37  C   -0.000041   0.004386   0.034657  -0.022743   0.013129  -0.005082
    38  H    0.000000  -0.000021   0.000355  -0.000045  -0.000704  -0.000309
    39  H    0.000000   0.000001   0.002215  -0.003078   0.000634   0.003562
    40  O    0.000000  -0.000068  -0.000048   0.000003   0.000009   0.000156
    41  O   -0.000000   0.000009  -0.000218  -0.000125   0.000178  -0.000445
    42  C   -0.000000   0.000006   0.000442  -0.000530   0.000093  -0.000624
    43  C   -0.000000  -0.000004   0.000099  -0.000041  -0.000025   0.000185
    44  H    0.000000   0.000000  -0.000000  -0.000000   0.000001  -0.000003
    45  H   -0.000000  -0.000000   0.000000  -0.000000  -0.000000   0.000000
    46  H    0.000000  -0.000000  -0.000000  -0.000000  -0.000000  -0.000001
    47  H    0.000000  -0.000000  -0.000000  -0.000000  -0.000002   0.000001
    48  H   -0.000000   0.000000  -0.000000  -0.000000   0.000001  -0.000002
    49  O    0.000022   0.000531   0.025487   0.001633  -0.016481   0.009055
    50  H    0.000000  -0.000004  -0.037251  -0.033200   0.056124  -0.005420
              19         20         21         22         23         24
     1  C    0.002897  -0.005288   0.002607  -0.006555   0.000911   0.000118
     2  C   -0.015143   0.013725  -0.017136  -0.036861  -0.006367  -0.000559
     3  C   -0.187823  -0.019690   0.095002  -0.010324   0.011700   0.008723
     4  C    0.004053  -0.004457   0.002587  -0.007408   0.001109  -0.000325
     5  C    0.000265   0.003577  -0.002385   0.005228  -0.000905   0.000017
     6  C   -0.008504  -0.008917   0.002255   0.001510   0.001578   0.000017
     7  C   -0.005253   0.000105  -0.000087   0.001121  -0.000122  -0.000017
     8  C   -0.000316  -0.000028   0.000005   0.001116   0.000047   0.000003
     9  C   -0.001318  -0.001052   0.000086  -0.000856   0.000255  -0.000008
    10  H    0.000002  -0.000000   0.000000   0.000001  -0.000000   0.000000
    11  H    0.000073   0.000001  -0.000000   0.000011   0.000000  -0.000000
    12  H    0.000000   0.000000   0.000000  -0.000000  -0.000000  -0.000000
    13  H    0.000001   0.000000  -0.000000   0.000004  -0.000000   0.000000
    14  H    0.000062  -0.000000  -0.000000  -0.000061   0.000000  -0.000000
    15  N   -0.079336  -0.046455  -0.097427   0.050816  -0.007791   0.018862
    16  H   -0.006518  -0.000007   0.003623  -0.004287  -0.000003   0.000008
    17  C    0.202925   0.346973   0.416129  -0.176313  -0.010818   0.008803
    18  C    0.023025  -0.002503   0.042571  -0.236122   0.016481  -0.018982
    19  C    5.558937   0.064237  -0.120245   0.408236   0.375525   0.287594
    20  H    0.064237   0.560885  -0.036629   0.017296  -0.004055  -0.002939
    21  H   -0.120245  -0.036629   0.619945   0.004025   0.003933  -0.001901
    22  C    0.408236   0.017296   0.004025   5.202284  -0.019419  -0.002899
    23  H    0.375525  -0.004055   0.003933  -0.019419   0.551561  -0.023612
    24  H    0.287594  -0.002939  -0.001901  -0.002899  -0.023612   0.568423
    25  C   -0.252973   0.002000  -0.028858   0.372080  -0.027050   0.044185
    26  H   -0.019956  -0.000081  -0.000112   0.324513  -0.003496  -0.002285
    27  H   -0.050852  -0.000100   0.001955   0.425691   0.003796  -0.003611
    28  H   -0.044810  -0.000306   0.008066  -0.004068   0.000060   0.000007
    29  H    0.007182  -0.000100  -0.000366   0.019963  -0.000056   0.000011
    30  H   -0.017206  -0.000052   0.000060  -0.024804   0.001867  -0.000097
    31  H    0.039147   0.000010  -0.000001  -0.002869  -0.000100  -0.000100
    32  C    0.013516  -0.003416   0.008225   0.000170   0.001453  -0.000249
    33  H   -0.002624   0.000008  -0.000005  -0.000702   0.000001  -0.000000
    34  C    0.000680   0.001136  -0.002365  -0.002056  -0.000002  -0.000010
    35  H   -0.000270   0.000002   0.000000   0.000000   0.000000  -0.000000
    36  H   -0.000035   0.000000  -0.000000   0.000009  -0.000000   0.000000
[...]
 ,-0.00000073,-0.00000041,-0.00000049,0.00000121,-0.00000060,-0.0000031
 4,-0.00000146,-0.00014419,-0.00012670,-0.00012047,0.00000203,0.0000146
 6,-0.00001456,-0.00022832,0.00012139,0.00078024,-0.00003881,0.00000624
 ,0.00008558,0.00001211,-0.00000046,0.00002958,-0.00042090,-0.00311737,
 -0.00991425,0.00002978,0.00023597,-0.00000203,0.00007628,-0.00000041,-
 0.00002253,0.00168053,0.00372648,0.00210555,-0.00363309,-0.03651095,0.
 00614209,0.10031917,-0.27592185,-0.07025106,0.00101822,0.00167847,-0.0
 0019415,-0.00044292,0.00003228,-0.00018167,0.00027809,0.00039444,-0.00
 088430,0.00000396,0.00142524,0.00038627,-0.10175657,0.30893478,0.00002
 224,-0.00000164,0.00004174,-0.00000143,-0.00001592,-0.00004258,-0.0000
 1280,-0.00001596,0.00002060,-0.00000130,0.00000156,-0.00001101,-0.0000
 0466,0.00000399,0.00000155,-0.00000506,0.00000187,-0.00000259,-0.00000
 032,0.00000181,0.00000167,-0.00000191,0.00000048,0.00000035,0.00000270
 ,-0.00000186,-0.00000477,-0.00000003,0.00000063,-0.00000135,0.00000107
 ,0.00000009,0.00000048,-0.00000032,0.00000063,-0.00000129,-0.00000082,
 0.00000036,0.00000013,0.00000140,-0.00000391,-0.00000065,0.00001304,0.
 00001996,-0.00000889,-0.00000602,-0.00000071,-0.00001577,-0.00000786,0
 .00000406,0.00000471,0.00000222,-0.00000701,-0.00000650,0.00000057,-0.
 00000228,0.00000052,-0.00000032,0.00000012,0.00000080,0.00000114,-0.00
 000080,-0.00000051,-0.00000081,0.00000065,-0.00000106,-0.00000048,0.00
 000074,-0.00000033,0.00000166,0.00000113,-0.00000019,0.00000053,-0.000
 00324,-0.00000064,0.00000117,0.00000195,-0.00000066,0.00000016,-0.0000
 0068,0.00000046,0.00000046,0.00000003,0.00000164,0.00000073,-0.0000023
 0,-0.00000052,-0.00000003,0.00000026,-0.00000081,0.00000052,0.00000324
 ,0.00000175,0.00006491,0.00002966,0.00006281,-0.00000407,-0.00000444,0
 .00000578,0.00059810,-0.00039254,-0.00014894,0.00002131,0.00000370,-0.
 00003160,-0.00001564,0.00000727,-0.00002805,0.00021672,0.00304198,0.00
 458785,-0.00008017,-0.00016112,-0.00004502,0.00003029,0.00006445,-0.00
 002391,-0.00088728,-0.00092573,-0.00135020,-0.00237622,0.02110057,0.00
 083216,0.03208690,-0.07633491,-0.08584139,0.01591510,-0.03387218,-0.00
 815692,-0.00069886,0.00028602,0.00191436,0.00030149,0.00078890,0.00125
 707,-0.00026042,-0.00040428,-0.00785108,-0.03819493,0.07385566,0.08913
 136,-0.00008229,0.00002636,-0.00012196,0.00000025,0.00002576,0.0001129
 1,0.00003037,0.00003599,-0.00004363,-0.00000198,0.00000344,0.00003352,
 0.00002421,-0.00000947,0.00000184,0.00001638,-0.00000861,0.00000750,0.
 00000608,-0.00000095,-0.00000289,0.00000599,-0.00000151,-0.00000536,-0
 .00000851,0.00000714,0.00001486,0.00000014,-0.00000229,0.00000360,-0.0
 0000276,0.00000077,-0.00000302,0.00000035,-0.00000369,0.00000333,0.000
 00154,-0.00000646,-0.00000034,-0.00001222,0.00000356,0.,-0.00003535,-0
 .00004703,0.00003054,0.00001159,0.00000101,0.00003343,0.00002222,-0.00
 000874,-0.00001395,-0.00000674,0.00001282,0.00000223,-0.00000089,0.000
 00450,-0.00000346,0.00000046,0.00000099,-0.00000110,-0.00000333,0.0000
 0130,0.00000088,0.00000285,-0.00000186,0.00000288,0.00000185,-0.000001
 91,0.00000186,-0.00000598,-0.00000231,0.00000121,-0.00000138,0.0000081
 9,-0.00000220,-0.00000390,-0.00000584,0.00000225,0.00000072,0.00000158
 ,-0.00000078,0.00000483,-0.00000256,0.00000089,-0.00000561,0.00000610,
 -0.00000154,0.00000006,-0.00000188,0.00000437,-0.00000131,-0.00000510,
 -0.00000313,-0.00002622,-0.00017423,-0.00006682,0.00000141,0.,-0.00001
 099,-0.00006687,-0.00005415,0.00068591,-0.00001197,0.00000294,0.000018
 84,0.00001086,-0.00000968,0.00007690,-0.00177194,-0.00234837,-0.009421
 38,-0.00001490,0.00002508,0.00001921,0.00021653,0.00011686,0.00004925,
 0.00298607,0.00280371,0.00193694,-0.02629652,-0.01230444,0.00437595,-0
 .29771625,0.03298526,-0.10256263,0.00553256,0.00052533,0.00160207,0.00
 147039,0.00022955,0.00140762,0.00029496,0.00021871,-0.00106931,0.00038
 950,-0.00052090,-0.00047022,-0.01123577,0.00327275,-0.00671958,0.32625
 813,-0.00006070,0.00002221,-0.00010006,-0.00001111,0.00002725,0.000081
 52,0.00004216,0.00001785,-0.00001928,0.00000274,0.00000539,0.00002587,
 0.00001700,-0.00001411,0.00000083,0.00001174,-0.00001035,0.00000545,-0
 .00000002,-0.00000047,-0.00000259,0.00000402,-0.00000377,-0.00000509,-
 0.00000924,0.00000566,0.00001007,0.00000132,-0.00000049,0.00000283,0.0
 0000021,0.00000232,-0.00000231,0.00000161,-0.00000093,0.00000266,0.000
 00286,-0.00000296,0.00000059,-0.00000714,0.00000809,0.00000113,-0.0000
 4959,-0.00003741,0.00001097,0.00001085,-0.00000208,0.00001937,0.000031
 72,-0.00001370,-0.00000348,0.00000079,0.00001164,0.00001652,-0.0000028
 6,0.00000393,-0.00000277,0.00000135,0.00000021,-0.00000042,-0.00000742
 ,0.00000236,-0.00000555,0.00000366,-0.00000256,0.00000436,0.00000109,0
 .,-0.00000055,-0.00000572,-0.00000280,0.00000162,-0.00000172,0.0000065
 6,-0.00000104,-0.00000314,-0.00000404,0.00000155,-0.00000098,0.0000013
 2,-0.00000235,-0.00000081,-0.00000073,-0.00000537,-0.00000555,0.000006
 99,0.00000047,-0.00000049,-0.00000003,0.00000134,-0.00000118,-0.000005
 64,-0.00000286,0.00008496,-0.00015690,-0.00006369,-0.00000223,0.000002
 55,-0.00000736,0.00040514,-0.00047633,0.00032827,-0.00000154,0.0000077
 2,0.00001754,-0.00001010,0.00001276,0.00004878,-0.00086504,0.00020403,
 -0.00521995,-0.00009099,-0.00016732,0.00002567,0.00019369,0.00009450,0
 .00006079,0.00017116,0.00075227,0.00178588,-0.04061446,-0.00543475,-0.
 00356541,0.04026118,-0.06804483,0.01350543,-0.00376577,0.00181775,-0.0
 0240499,-0.00054554,0.00107512,-0.00083272,0.00025220,0.00015623,0.000
 17703,-0.00083756,0.00038317,0.00057798,0.03017494,-0.00090068,0.01292
 826,-0.02477498,0.07067139,0.00001983,0.00000026,0.00003592,-0.0000051
 5,-0.00000487,-0.00004198,-0.00001571,-0.00001033,0.00000675,-0.000006
 34,0.00000081,-0.00000593,-0.00000052,0.00000037,0.00000346,-0.0000018
 9,0.00000153,-0.00000208,-0.00000303,0.00000192,0.00000324,0.00000010,
 0.00000043,-0.00000284,0.00000077,-0.00000120,-0.00000342,0.00000004,0
 .00000040,-0.00000137,0.00000067,-0.00000015,-0.00000004,-0.00000025,0
 .00000037,-0.00000079,0.00000006,-0.00000039,0.00000061,0.00000043,-0.
 00000170,0.00000035,0.00001901,0.00001089,-0.00000043,-0.00000484,0.00
 000071,-0.00000509,-0.00001564,0.00000477,-0.00000246,-0.00000818,-0.0
 0000174,-0.00001095,0.00000189,-0.00000136,0.00000171,-0.00000017,-0.0
 0000023,0.00000028,0.00000374,-0.00000140,0.00000350,-0.00000253,0.000
 00142,-0.00000278,-0.00000015,-0.00000026,0.00000078,0.00000225,0.0000
 0088,-0.00000092,0.00000160,-0.00000201,0.00000069,0.00000116,0.000001
 01,-0.00000035,0.00000129,-0.00000060,0.00000151,0.00000282,-0.0000009
 9,0.00000402,0.00000386,-0.00000253,-0.00000013,0.00000024,-0.00000041
 ,0.00000102,-0.00000009,0.00000180,0.00000026,-0.00003491,0.00005782,0
 .00004385,0.00000068,-0.00001052,0.00000261,-0.00058573,0.00053960,-0.
 00017101,0.00001191,-0.00001295,-0.00001606,0.00000476,0.00001628,-0.0
 0003314,0.00228306,0.00111361,0.00423233,0.00008812,0.00011953,-0.0000
 5626,-0.00012523,-0.00013638,-0.00005803,-0.00020500,-0.00097004,-0.00
 122081,0.02142451,0.00270794,0.00365549,-0.10923732,0.01182447,-0.1083
 0732,-0.03521994,0.00512353,-0.01238494,0.00077013,-0.00109034,-0.0076
 3521,0.00055535,0.00063008,0.00115452,0.00037019,-0.00053063,0.0019175
 5,0.00986255,-0.00192820,0.00573040,0.11003535,-0.01744733,0.11318635,
 -0.32823576,0.23467260,0.21379328,0.00271857,0.01437005,0.01877148,-0.
 00427955,0.00061502,0.00012858,-0.05692005,0.06866407,0.01267087,0.001
 92355,0.00048093,-0.00764231,0.00068544,-0.00227166,-0.00389410,-0.007
 54393,0.00466063,0.01511236,-0.00257880,0.00301200,-0.00913689,0.00466
 658,-0.00309537,-0.00588784,0.00010286,0.00021128,-0.00021464,-0.00124
 858,0.00064880,-0.00201449,-0.00001503,-0.00006240,-0.00028311,-0.0005
 7462,0.00033817,-0.00051179,-0.00049001,0.00021588,0.00069717,0.000125
 55,-0.00103807,-0.00304644,0.00163221,-0.00127640,-0.00077122,0.000496
 28,0.00101357,0.00129920,-0.00097894,0.00115510,0.00050124,0.00028544,
 -0.00003723,-0.00023510,0.00072618,-0.00043449,-0.00024206,-0.00010797
 ,-0.00021669,-0.00040229,-0.00009610,0.00006629,0.00022268,0.00002574,
 0.00017841,-0.00004121,-0.00007710,-0.00003466,-0.00002189,0.00000333,
 0.00003444,-0.00024715,-0.00000558,-0.00019290,-0.00004226,0.00004227,
 -0.00001994,-0.00008132,0.00007756,-0.00032643,-0.00042829,0.00037371,
 -0.00016360,-0.00023251,-0.00001880,-0.00001299,0.00013867,0.00000194,
 -0.00017538,-0.00008774,0.00134077,0.00120289,-0.00351580,0.00118443,-
 0.00028413,0.00220873,-0.00000623,0.00039430,-0.00040535,-0.00032315,-
 0.00051156,0.00023228,-0.00026840,-0.00017111,-0.00017611,-0.00011230,
 -0.00017684,-0.00016431,0.00005366,-0.00011598,-0.00014649,0.00004929,
 -0.00003754,0.00006651,0.00015372,0.00001080,0.00010372,0.00008831,0.0
 0002303,0.00005110,-0.00007736,0.00003396,-0.00001356,-0.00001159,0.00
 001073,-0.00000428,0.00001384,-0.00000433,0.00001254,0.00000088,0.0000
 0250,-0.00000012,-0.00000037,-0.00000883,-0.00000738,0.00000510,-0.000
 01039,-0.00000427,0.00002190,0.00000134,0.00000464,0.38528407,0.233853
 29,-0.27879438,-0.19084417,0.00943179,0.00625423,-0.01604642,0.0027829
 5,-0.00048557,0.00215181,0.06944970,-0.04099461,-0.01208045,0.00054424
 ,0.00167404,0.00749046,-0.00289321,-0.00026083,0.00357852,0.00659332,-
 0.00396113,-0.01355256,0.00207358,-0.00278283,0.00823145,-0.00343365,0
 .00295280,0.00486119,0.00016395,0.00013508,0.00020968,0.00068784,-0.00
 151192,0.00159158,-0.00008648,-0.00009680,0.00022206,0.00037132,-0.000
 52265,0.00046582,0.00030342,-0.00040550,-0.00066272,-0.00029867,0.0002
 3267,0.00008316,-0.00023922,0.00057093,0.00039126,0.00016809,-0.000158
 35,0.00001599,0.00017334,0.00013307,-0.00032404,0.00002627,-0.00002951
 ,0.00014079,0.00002394,-0.00010323,0.00009302,-0.00003310,-0.00000539,
 -0.00009718,0.00001271,0.00001964,-0.00006352,0.00001321,0.00005071,-0
 .00006315,-0.00004686,0.00000568,-0.00001465,0.00002863,0.00000268,0.0
 0020407,0.00000923,0.00002650,0.00001414,-0.00003443,0.00000037,-0.000
 02506,-0.00005590,-0.00000414,-0.00009220,-0.00005132,-0.00001092,0.00
 007430,-0.00001007,0.00004411,-0.00007911,0.00000398,0.00004846,-0.000
 01007,-0.00023115,-0.00346703,-0.00083958,0.00071124,0.00070073,0.0000
 3861,0.00057954,0.00174997,0.00012237,-0.00040521,0.00185429,-0.000600
 54,0.00074362,0.00017473,-0.00000290,-0.00000342,-0.00024348,-0.001035
 01,-0.00020147,0.00003814,0.00060911,-0.00004052,-0.00005668,0.0001830
 2,-0.00008640,0.00028301,0.00047841,-0.00007554,0.00001250,0.00041683,
 0.00014918,0.00004528,-0.00012658,0.00000710,-0.00000995,-0.00001086,-
 0.00000121,0.00000157,-0.00000407,-0.00000570,-0.00000910,0.00001134,-
 0.00000487,0.00002016,0.00001278,-0.00001923,0.00000716,-0.00000046,-0
 .00001956,-0.00001396,-0.00000461,-0.31905175,0.31637659,0.17356872,-0
 .15474117,-0.28684103,0.03697920,-0.03738330,-0.03154281,0.00361041,0.
 00167551,0.00114684,0.01664533,-0.01514319,0.03599073,-0.00301493,0.00
 345007,-0.00476550,-0.00058732,0.00060989,-0.00413374,0.00355282,-0.00
 207575,-0.00737604,0.00679497,-0.00627632,0.00359097,-0.00978777,0.007
 69995,0.00847217,0.00016313,-0.00005131,0.00009958,-0.00332059,0.00262
 388,0.00200359,-0.00036507,0.00022014,0.00015386,-0.00027198,0.0002407
 7,-0.00005193,-0.00034704,0.00016601,0.00034876,-0.00059688,-0.0012837
 6,0.00089510,0.00024974,-0.00076464,-0.00025675,0.00073367,-0.00062388
 ,-0.00068916,0.00017966,-0.00038211,0.00014371,-0.00029373,0.00020978,
 -0.00030540,-0.00010792,0.00022664,-0.00011744,-0.00012366,0.00010605,
 0.00011229,0.00012942,-0.00019118,0.00011807,0.00004298,-0.00018173,0.
 00014448,-0.00013572,-0.00010211,0.00008966,-0.00019693,0.00023642,-0.
 00028490,-0.00011938,-0.00007413,0.00003821,0.00000909,0.00005194,0.00
 004228,-0.00010080,-0.00001703,0.00001531,-0.00042808,0.00029843,0.000
 16128,0.00004806,-0.00008955,0.00007349,-0.00004319,-0.00013257,0.0000
 2203,-0.00192866,-0.00403114,0.00027263,0.00092169,0.00036577,-0.01279
 185,0.00130374,0.00126903,0.00052426,-0.00016636,0.00009259,-0.0000887
 8,0.00131071,0.00047582,0.00008007,-0.00130565,-0.00138202,0.00028264,
 -0.00019754,0.00016603,0.00020253,-0.00012540,-0.00008497,0.00018192,0
 .00079054,0.00098646,0.00005738,0.00079434,0.00091001,-0.00100550,-0.0
 0039229,-0.00050195,0.00024712,0.00004555,0.00005986,0.00000015,-0.000
 01178,-0.00002067,0.00000645,0.00002912,0.00003212,-0.00005680,-0.0000
 1720,-0.00001629,0.00000628,0.00002975,0.00006673,-0.00002124,0.000060
 08,0.00004656,-0.00002071,-0.22464907,0.20469503,0.29681799,-0.0001251
 8,0.00143635,0.00240957,-0.02125362,0.02794838,0.01529585,-0.13179810,
 0.11240411,0.06522125,-0.00019282,0.00033443,-0.00012901,-0.00029612,0
 .00010897,0.00037170,0.00004118,-0.00010238,-0.00002947,0.00014476,-0.
 00009485,-0.00009921,-0.00017341,0.00014648,-0.00008489,0.00012804,-0.
 00009651,-0.00001741,0.00001188,-0.00000505,-0.00000124,0.00000927,0.0
 0000672,-0.00005901,0.00001279,-0.00000441,-0.00002924,0.00000872,-0.0
 0001191,0.00001050,0.00020502,-0.00010664,-0.00024261,0.00814071,-0.01
 691877,-0.00870652,0.00199711,-0.00212826,-0.00077755,0.00002785,-0.00
 358557,-0.00027233,-0.00177551,-0.00309933,0.00183309,0.00013036,-0.00
 000890,-0.00022212,-0.00038158,-0.00121104,0.00045055,0.00002406,0.000
 16713,-0.00015358,0.00019364,-0.00004261,-0.00012162,0.00001407,0.0000
 5801,-0.00003018,-0.00001804,0.00005536,-0.00001499,0.00017632,-0.0007
 9095,-0.00084040,-0.00000340,0.00002825,0.00002474,-0.00001591,-0.0000
 0916,-0.00000844,-0.00002124,0.00010967,-0.00002163,0.00012109,-0.0000
 8389,-0.00001041,0.00001349,0.00002012,0.00003670,-0.00014292,-0.00033
 127,0.00006728,0.00135164,0.00166188,0.00028040,-0.00663144,-0.0007235
 1,-0.00314538,-0.00004326,-0.00017523,0.00000216,-0.00011099,-0.001293
 38,0.00007043,0.00037461,-0.00033639,-0.00023428,0.00006196,0.00013180
 ,0.00006317,0.00014589,-0.00001272,-0.00021691,-0.00004017,0.00004816,
 0.00003686,-0.00004488,-0.00013052,-0.00005477,-0.00002809,-0.00005459
 ,0.00001500,0.00000348,0.00002256,0.00000108,-0.00000535,-0.00000103,0
 .00000189,0.00000122,0.00000087,0.00000158,-0.00000039,-0.00000098,0.0
 0000180,0.00000242,-0.00000173,-0.00000259,-0.00000133,-0.00000636,0.0
 0000115,0.00000046,-0.00000185,0.00000162,0.00188704,-0.00157649,0.000
 64221,0.14787470,0.00123796,-0.00055368,-0.00147197,0.00127550,0.00014
 106,0.00068820,0.10383233,-0.22008036,-0.08784294,0.00018732,-0.000007
 11,0.00021184,0.00000538,-0.00000573,-0.00006151,-0.00001135,-0.000009
 75,0.00001934,-0.00002369,0.00003897,-0.00003483,0.00006815,-0.0000639
 0,0.00002067,-0.00008468,0.00006756,0.00000664,-0.00000082,0.00000387,
 -0.00000480,0.00000672,0.00000067,0.00002465,-0.00000665,0.00000373,-0
 .00000323,-0.00001050,0.00000755,-0.00000225,-0.00002711,-0.00000403,0
 .00000192,0.01315062,-0.03071969,-0.01701475,-0.00396925,0.00686438,0.
 00153766,0.00326869,0.00035558,-0.00298515,-0.00304695,-0.00375502,0.0
 0605845,-0.00012787,0.00029899,0.00047428,-0.00090654,0.00067712,0.001
 17517,-0.00077573,0.00012281,-0.00024148,0.00041426,0.00020959,-0.0002
 3439,0.00003404,0.00006712,-0.00008178,-0.00000791,0.00002357,0.000022
 98,0.00051195,-0.00093881,-0.00201666,-0.00012673,0.00010143,0.0001238
 5,-0.00004251,0.00000887,0.00000365,-0.00024636,0.00018274,-0.00035365
 ,0.00024205,0.00021784,0.00011274,0.00004434,0.00007429,0.00004621,-0.
 00033538,-0.00070844,0.00018776,-0.00012173,0.00091296,0.00041509,-0.0
 0043431,0.00074439,-0.00031821,0.00002235,-0.00009958,0.00010433,-0.00
 004838,0.00029915,-0.00010142,0.00003059,0.00017891,-0.00001471,0.0000
 4464,0.00009831,0.00000368,0.00002095,-0.00000004,-0.00000104,0.000037
 71,-0.00002678,-0.00005250,-0.00003009,-0.00004712,-0.00003123,-0.0000
 3554,-0.00003780,0.00004024,0.00002031,0.00001861,-0.00001312,-0.00000
 008,-0.00000470,-0.00000033,0.00000031,0.00000061,-0.00000108,-0.00000
 141,-0.00000091,0.00000236,-0.00000060,0.00000180,0.00000017,-0.000001
 75,-0.00000221,0.00000197,-0.00000320,-0.00000244,0.00000072,-0.002286
 13,0.00051286,-0.00143073,-0.11174294,0.24483276,-0.00006815,0.0007967
 6,-0.00035239,-0.00777442,0.01044208,0.00732011,0.06752530,-0.09985981
 ,-0.11746882,-0.00013742,0.00002992,0.00004703,-0.00002449,0.00000582,
 0.00022591,0.00007815,-0.00005595,-0.00000283,0.00009282,-0.00008550,-
 0.00006324,-0.00009178,0.00008961,-0.00005236,0.00004867,-0.00007055,0
 .00004611,0.00001069,-0.00000819,0.00001337,-0.00001211,0.00000615,-0.
 00002601,0.00001286,-0.00000291,-0.00000388,0.00001279,-0.00001397,0.0
 0000597,0.00006349,-0.00004742,-0.00008651,-0.00526571,0.00909606,0.00
 488719,0.01877275,-0.02693926,-0.01448596,0.00083157,0.00112120,0.0014
 2694,0.00055010,0.00024030,-0.00088351,-0.00040588,0.00005965,0.000087
 83,0.00055458,0.00083749,0.00014190,-0.00014695,-0.00030487,-0.0003730
 9,-0.00002712,0.00000282,0.00003550,0.00000646,0.00009317,-0.00003878,
 -0.00002294,-0.00005987,0.00003691,0.00008895,0.00049597,0.00051873,-0
 .00004110,0.00001856,0.00002523,-0.00000530,0.00000210,-0.00000693,0.0
 0023511,0.00006884,0.00041846,-0.00023319,0.00022294,-0.00006991,-0.00
 002918,-0.00011937,0.00006420,0.00006871,0.00013964,-0.00003569,0.0007
 8668,-0.00005473,0.00003410,-0.00312640,0.00033277,-0.00066837,0.00004
 118,0.00032546,-0.00028807,0.00022984,0.00002635,0.00022468,0.00004700
 ,0.00012852,-0.00006256,0.00004595,-0.00021620,0.00009232,-0.00015379,
 0.00000755,-0.00003270,0.00019578,-0.00019630,-0.00000132,0.00003647,0
 .00016938,0.00004128,0.00000710,0.00006765,-0.00003953,-0.00000471,-0.
 00003317,0.00000733,0.00000957,0.00000111,0.00000002,-0.00000193,-0.00
 000323,-0.00000360,0.00000062,0.00000127,-0.00000186,-0.00000553,0.000
 00322,0.00000265,0.00000524,0.00001084,0.00000032,-0.00000193,0.000005
 81,-0.00000215,-0.00146364,0.00019311,-0.00199225,-0.07131477,0.103029
 17,0.12133823\\-0.00000558,0.00001557,0.00000233,-0.00001082,-0.000004
 29,0.00000024,0.00000551,0.00000088,0.00000016,-0.00000462,0.00000226,
 0.00000496,0.00000734,-0.00000440,-0.00000778,0.00000059,-0.00000141,0
 .00000276,0.00000087,-0.00000035,0.00000268,0.00000218,-0.00000312,-0.
 00000400,-0.00000279,0.00000479,0.00000307,0.00000054,-0.00000112,-0.0
 0000041,-0.00000140,-0.00000081,-0.00000299,0.00000072,0.00000093,-0.0
 0000127,0.00000014,-0.00000082,0.00000180,-0.00000184,-0.00000003,0.00
 000134,0.00000065,0.00000126,-0.00000116,-0.00000095,-0.00000167,-0.00
 000007,-0.00000153,0.00000064,0.00000058,0.00000095,-0.00000180,-0.000
 00106,0.00000006,-0.00000004,-0.00000083,0.00000046,-0.00000093,0.0000
 0022,0.00000068,0.00000010,-0.00000002,0.00000050,-0.00000002,0.000000
 68,-0.00000031,0.00000023,-0.00000019,-0.00000013,-0.00000011,0.000000
 17,-0.00000085,0.00000050,-0.00000056,-0.00000027,0.00000016,0.0000000
 2,0.00000020,-0.00000031,0.00000008,0.00000007,0.00000011,0.00000018,-
 0.00000065,-0.00000008,0.00000019,-0.00000011,-0.00000004,-0.00000029,
 0.00000029,-0.00000012,0.00000027,0.00000438,-0.00000142,0.00000064,0.
 00000043,-0.00000009,0.00000070,0.00000329,0.00000231,-0.00000137,-0.0
 0000262,-0.00000046,0.00000023,-0.00000078,0.00000040,-0.00000151,-0.0
 0000094,-0.00000085,0.00000392,-0.00000147,-0.00000054,-0.00000092,0.0
 0000140,0.00000207,0.00000088,-0.00000085,-0.00000053,0.00000254,-0.00
 000178,-0.00000353,-0.00000256,0.00000289,0.00000401,-0.00000401,0.000
 00003,0.00000019,0.00000121,0.00000042,-0.00000004,-0.00000013,0.,-0.0
 0000007,-0.00000065,-0.00000014,0.00000036,-0.00000017,0.00000051,-0.0
 0000124,-0.00000006,-0.00000115,0.00000009,-0.00000013,0.00000590,-0.0
 0000618,0.00000047,0.00000055,-0.00000044,-0.00000019\\\@
 The archive entry for this job was punched.


 HE THAT RISETH LATE MUST TROT ALL DAY.

                  -- BENJAMIN FRANKLIN
 Job cpu time:       1 days  1 hours 12 minutes 33.0 seconds.
 Elapsed time:       0 days  1 hours 34 minutes 53.4 seconds.
 File lengths (MBytes):  RWF=   4179 Int=      0 D2E=      0 Chk=    143 Scr=      1
 Normal termination of Gaussian 16 at Wed Feb 19 01:29:54 2025.
